                         Program Version 5.0.1 -  RELEASE  -
|  1> !PBE DEF2-SVP D3 NEB-TS FREQ
|  2> %PAL NPROCS 16 END
|  3> %NEB NEB_END_XYZFILE "bvl_bpin2_rxn1_prod.xyz"
|  4>      NEB_TS_XYZFILE "bvl_bpin2_rxn1_TSguess.xyz"
|  5> END
|  6> * XYZfile 0 1 bvl_bpin2.xyz
|  7>
|  8>
|  9>                          ****END OF INPUT****
 Total Charge           Charge          ....    0
 Multiplicity           Mult            ....    1
 Number of Electrons    NEL             ....  206
Dispersion correction           -0.077092432
FINAL SINGLE POINT ENERGY     -1206.018988380252
Dispersion correction            ... done
Dispersion correction           -0.077145978
FINAL SINGLE POINT ENERGY     -1206.019241826692
Dispersion correction            ... done
Dispersion correction           -0.077202815
FINAL SINGLE POINT ENERGY     -1206.019270625255
Dispersion correction            ... done
FINAL SINGLE POINT ENERGY     -1206.019405588187
FINAL SINGLE POINT ENERGY     -1206.019571524095
FINAL SINGLE POINT ENERGY     -1206.019611293734
FINAL SINGLE POINT ENERGY     -1206.019622455205
Dispersion correction           -0.077484669
FINAL SINGLE POINT ENERGY     -1206.019628027446
Dispersion correction            ... done

CARTESIAN COORDINATES (ANGSTROEM)
---------------------------------
  C      0.464402   -1.747567   -5.908900
  C      0.835192   -2.139920   -4.481873
  O      0.353799   -1.112945   -3.571909
  C      0.136134   -3.447071   -4.088911
  C      2.387707   -2.154620   -4.177100
  C      3.053261   -3.521689   -4.297777
  C      3.163379   -1.107735   -4.986368
  O      2.433766   -1.731941   -2.787012
  B      1.276817   -1.014450   -2.542830
  C      1.020760   -0.188166   -1.258233
  C      2.077461    0.006641   -0.344020
  C      2.125481    0.862199    0.758712
  H      3.093244    0.976720    1.272575
  C      0.997656    1.722861    1.274477
  H      1.260322    2.126525    2.267938
  C     -0.390939    1.132652    1.323212
  B     -1.163993    1.147816    2.670212
  O     -0.671884    1.754169    3.811398
  C     -1.549038    1.380350    4.910620
  C     -1.663854    2.560223    5.870855
  C     -0.897702    0.182130    5.611465
  C     -2.888891    1.001250    4.156556
  C     -3.796133    2.212202    3.904883
  C     -3.682236   -0.135109    4.794075
  O     -2.400883    0.561856    2.860121
  C     -0.969431    0.571107    0.233284
  C     -0.350851    0.463920   -1.126385
  H     -1.050723   -0.026437   -1.825060
  C      0.218347    1.697398   -1.772705
  C      0.948990    2.702369   -1.133472
  C      1.348309    2.726529    0.209092
  H      2.039907    3.527211    0.516233
  H     -0.637478   -1.751184   -6.022616
  H      0.886861   -2.467969   -6.637901
  H      0.828754   -0.734714   -6.159551
  H     -0.959325   -3.285492   -4.108507
  H      0.416405   -3.759646   -3.063804
  H      0.379577   -4.271135   -4.787866
  H      2.969182   -3.911910   -5.332040
  H      2.604432   -4.255175   -3.603402
  H      4.129567   -3.434639   -4.050778
  H      3.258203   -1.395821   -6.051688
  H      4.180169   -1.009181   -4.558980
  H      2.673194   -0.115846   -4.930763
  H      3.024161   -0.492405   -0.611366
  H     -0.679946    2.756990    6.340213
  H     -2.391073    2.342570    6.678900
  H     -1.980894    3.481282    5.348629
  H      0.128757    0.461938    5.918837
  H     -0.824675   -0.688508    4.930623
  H     -1.462297   -0.121622    6.514516
  H     -4.287332    2.560331    4.834558
  H     -4.582101    1.923784    3.180160
  H     -3.224924    3.055787    3.470269
  H     -3.999607    0.133280    5.821816
  H     -3.091517   -1.068254    4.837067
  H     -4.592610   -0.336852    4.196032
  H     -1.981350    0.146079    0.349521
  H      0.095101    1.755769   -2.865249
  H      1.362393    3.494063   -1.779781

Dispersion correction           -0.077489357
FINAL SINGLE POINT ENERGY     -1206.019631336908
Dispersion correction            ... done
                    ***********************HURRAY********************
 Multiplicity           Mult            ....    1
 Number of Electrons    NEL             ....  206
 Basis Dimension        Dim             ....  552

ORBITAL ENERGIES
----------------

  NO   OCC          E(Eh)            E(eV)
   0   2.0000     -18.756756      -510.3973
   1   2.0000     -18.755081      -510.3517
   2   2.0000     -18.753826      -510.3176
   3   2.0000     -18.753414      -510.3063
   4   2.0000      -9.957980      -270.9704
   5   2.0000      -9.957505      -270.9575
   6   2.0000      -9.957451      -270.9560
   7   2.0000      -9.957019      -270.9443
   8   2.0000      -9.908114      -269.6135
   9   2.0000      -9.906867      -269.5796
  10   2.0000      -9.902391      -269.4578
  11   2.0000      -9.902092      -269.4496
  12   2.0000      -9.901583      -269.4358
  13   2.0000      -9.895404      -269.2676
  14   2.0000      -9.895150      -269.2607
  15   2.0000      -9.894571      -269.2450
  16   2.0000      -9.894253      -269.2363
  17   2.0000      -9.892777      -269.1961
  18   2.0000      -9.892522      -269.1892
  19   2.0000      -9.892306      -269.1833
  20   2.0000      -9.892180      -269.1799
  21   2.0000      -9.892080      -269.1772
  22   2.0000      -9.887339      -269.0482
  23   2.0000      -9.886871      -269.0354
  24   2.0000      -9.883968      -268.9564
  25   2.0000      -9.872395      -268.6415
  26   2.0000      -6.522202      -177.4781
  27   2.0000      -6.521700      -177.4645
  28   2.0000      -0.955029       -25.9877
  29   2.0000      -0.954034       -25.9606
  30   2.0000      -0.887064       -24.1382
  31   2.0000      -0.886051       -24.1107
  32   2.0000      -0.773680       -21.0529
  33   2.0000      -0.724663       -19.7191
  34   2.0000      -0.722829       -19.6692
  35   2.0000      -0.713491       -19.4151
  36   2.0000      -0.677347       -18.4315
  37   2.0000      -0.673920       -18.3383
  38   2.0000      -0.671811       -18.2809
  39   2.0000      -0.670710       -18.2509
  40   2.0000      -0.630641       -17.1606
  41   2.0000      -0.630207       -17.1488
  42   2.0000      -0.603745       -16.4287
  43   2.0000      -0.603545       -16.4233
  44   2.0000      -0.592042       -16.1103
  45   2.0000      -0.569152       -15.4874
  46   2.0000      -0.563230       -15.3263
  47   2.0000      -0.546005       -14.8576
  48   2.0000      -0.541715       -14.7408
  49   2.0000      -0.495542       -13.4844
  50   2.0000      -0.494187       -13.4475
  51   2.0000      -0.484965       -13.1966
  52   2.0000      -0.483140       -13.1469
  53   2.0000      -0.457355       -12.4453
  54   2.0000      -0.450083       -12.2474
  55   2.0000      -0.448971       -12.2171
  56   2.0000      -0.441734       -12.0202
  57   2.0000      -0.423889       -11.5346
  58   2.0000      -0.418990       -11.4013
  59   2.0000      -0.414191       -11.2707
  60   2.0000      -0.413666       -11.2564
  61   2.0000      -0.398924       -10.8553
  62   2.0000      -0.398091       -10.8326
  63   2.0000      -0.393731       -10.7140
  64   2.0000      -0.387514       -10.5448
  65   2.0000      -0.384464       -10.4618
  66   2.0000      -0.382995       -10.4218
  67   2.0000      -0.375624       -10.2213
  68   2.0000      -0.355975        -9.6866
  69   2.0000      -0.355006        -9.6602
  70   2.0000      -0.353935        -9.6311
  71   2.0000      -0.351688        -9.5699
  72   2.0000      -0.350278        -9.5315
  73   2.0000      -0.348631        -9.4867
  74   2.0000      -0.347335        -9.4515
  75   2.0000      -0.344219        -9.3667
  76   2.0000      -0.341052        -9.2805
  77   2.0000      -0.332858        -9.0575
  78   2.0000      -0.330575        -8.9954
  79   2.0000      -0.326733        -8.8909
  80   2.0000      -0.324150        -8.8206
  81   2.0000      -0.323631        -8.8064
  82   2.0000      -0.321310        -8.7433
  83   2.0000      -0.320147        -8.7116
  84   2.0000      -0.317146        -8.6300
  85   2.0000      -0.308941        -8.4067
  86   2.0000      -0.306202        -8.3322
  87   2.0000      -0.305857        -8.3228
  88   2.0000      -0.299617        -8.1530
  89   2.0000      -0.293977        -7.9995
  90   2.0000      -0.285631        -7.7724
  91   2.0000      -0.284440        -7.7400
  92   2.0000      -0.276915        -7.5352
  93   2.0000      -0.273886        -7.4528
  94   2.0000      -0.266827        -7.2607
  95   2.0000      -0.265546        -7.2259
  96   2.0000      -0.265255        -7.2180
  97   2.0000      -0.262372        -7.1395
  98   2.0000      -0.226001        -6.1498
  99   2.0000      -0.225229        -6.1288
 100   2.0000      -0.209131        -5.6908
 101   2.0000      -0.193068        -5.2536
 102   2.0000      -0.172830        -4.7030
 103   0.0000      -0.058510        -1.5921
 104   0.0000      -0.048051        -1.3075
 105   0.0000      -0.012259        -0.3336
 106   0.0000       0.019361         0.5268
 107   0.0000       0.022376         0.6089

-------
TIMINGS
-------

Dispersion correction           -0.077492455
FINAL SINGLE POINT ENERGY     -1206.019633804923
                    ***********************HURRAY************************

DIPOLE MOMENT
-------------
                                X             Y             Z
Electronic contribution:      4.06602       7.33667       0.05272
Nuclear contribution   :     -4.24882      -7.58036      -0.04196
                        -----------------------------------------
Total Dipole Moment    :     -0.18279      -0.24368       0.01076
                        -----------------------------------------
Magnitude (a.u.)       :      0.30481
Magnitude (Debye)      :      0.77478

Dispersion correction in the Hessian             ... done   (      1.2 sec)

VIBRATIONAL FREQUENCIES
-----------------------

Scaling factor for frequencies =  1.000000000  (already applied!)

   0:         0.00 cm**-1
   1:         0.00 cm**-1
   2:         0.00 cm**-1
   3:         0.00 cm**-1
   4:         0.00 cm**-1
   5:         0.00 cm**-1
   6:      -170.45 cm**-1 ***imaginary mode***
   7:        16.78 cm**-1
   8:        20.65 cm**-1
   9:        26.30 cm**-1
  10:        42.14 cm**-1
  11:        59.44 cm**-1
  12:        77.77 cm**-1
  13:        91.83 cm**-1
  14:        98.04 cm**-1
  15:       101.96 cm**-1
  16:       129.18 cm**-1
  17:       154.58 cm**-1
  18:       209.37 cm**-1
  19:       221.10 cm**-1
  20:       223.48 cm**-1
  21:       231.12 cm**-1
  22:       235.68 cm**-1
  23:       246.63 cm**-1
  24:       260.35 cm**-1
  25:       275.67 cm**-1
  26:       286.04 cm**-1
  27:       288.15 cm**-1
  28:       293.13 cm**-1
  29:       300.32 cm**-1
  30:       300.58 cm**-1
  31:       302.13 cm**-1
  32:       308.31 cm**-1
  33:       312.53 cm**-1
  34:       319.47 cm**-1
  35:       331.46 cm**-1
  36:       349.86 cm**-1
  37:       356.22 cm**-1
  38:       358.70 cm**-1
  39:       366.43 cm**-1
  40:       368.66 cm**-1
  41:       381.41 cm**-1
  42:       404.02 cm**-1
  43:       437.83 cm**-1
  44:       443.23 cm**-1
  45:       468.77 cm**-1
  46:       497.94 cm**-1
  47:       501.19 cm**-1
  48:       509.93 cm**-1
  49:       514.69 cm**-1
  50:       520.50 cm**-1
  51:       549.78 cm**-1
  52:       555.38 cm**-1
  53:       571.15 cm**-1
  54:       572.67 cm**-1
  55:       614.73 cm**-1
  56:       655.12 cm**-1
  57:       660.11 cm**-1
  58:       660.22 cm**-1
  59:       669.82 cm**-1
  60:       689.14 cm**-1
  61:       741.00 cm**-1
  62:       758.75 cm**-1
  63:       768.54 cm**-1
  64:       791.20 cm**-1
  65:       821.21 cm**-1
  66:       825.02 cm**-1
  67:       837.16 cm**-1
  68:       839.50 cm**-1
  69:       841.04 cm**-1
  70:       844.35 cm**-1
  71:       879.82 cm**-1
  72:       889.50 cm**-1
  73:       901.26 cm**-1
  74:       901.82 cm**-1
  75:       902.84 cm**-1
  76:       903.10 cm**-1
  77:       903.38 cm**-1
  78:       922.69 cm**-1
  79:       934.00 cm**-1
  80:       934.59 cm**-1
  81:       935.52 cm**-1
  82:       937.76 cm**-1
  83:       941.11 cm**-1
  84:       947.67 cm**-1
  85:       961.84 cm**-1
  86:       962.28 cm**-1
  87:       964.95 cm**-1
  88:       969.87 cm**-1
  89:       978.38 cm**-1
  90:      1010.14 cm**-1
  91:      1045.19 cm**-1
  92:      1092.51 cm**-1
  93:      1092.95 cm**-1
  94:      1113.14 cm**-1
  95:      1126.77 cm**-1
  96:      1131.31 cm**-1
  97:      1146.62 cm**-1
  98:      1148.37 cm**-1
  99:      1148.75 cm**-1
 100:      1171.88 cm**-1
 101:      1199.71 cm**-1
 102:      1200.24 cm**-1
 103:      1200.69 cm**-1
 104:      1208.59 cm**-1
 105:      1223.78 cm**-1
 106:      1226.05 cm**-1
 107:      1226.17 cm**-1
 108:      1241.85 cm**-1
 109:      1242.88 cm**-1
 110:      1284.36 cm**-1
 111:      1291.02 cm**-1
 112:      1315.30 cm**-1
 113:      1322.08 cm**-1
 114:      1331.76 cm**-1
 115:      1332.59 cm**-1
 116:      1334.45 cm**-1
 117:      1334.77 cm**-1
 118:      1336.90 cm**-1
 119:      1339.31 cm**-1
 120:      1342.17 cm**-1
 121:      1342.71 cm**-1
 122:      1347.33 cm**-1
 123:      1350.46 cm**-1
 124:      1351.64 cm**-1
 125:      1380.99 cm**-1
 126:      1389.68 cm**-1
 127:      1389.74 cm**-1
 128:      1398.60 cm**-1
 129:      1398.84 cm**-1
 130:      1400.27 cm**-1
 131:      1400.73 cm**-1
 132:      1404.86 cm**-1
 133:      1405.33 cm**-1
 134:      1411.23 cm**-1
 135:      1418.54 cm**-1
 136:      1418.73 cm**-1
 137:      1419.23 cm**-1
 138:      1425.01 cm**-1
 139:      1425.05 cm**-1
 140:      1428.18 cm**-1
 141:      1428.59 cm**-1
 142:      1440.55 cm**-1
 143:      1440.94 cm**-1
 144:      1464.78 cm**-1
 145:      1505.00 cm**-1
 146:      1594.39 cm**-1
 147:      1677.64 cm**-1
 148:      2978.94 cm**-1
 149:      2979.57 cm**-1
 150:      2979.69 cm**-1
 151:      2980.59 cm**-1
 152:      2983.91 cm**-1
 153:      2984.01 cm**-1
 154:      2986.15 cm**-1
 155:      2986.27 cm**-1
 156:      3053.68 cm**-1
 157:      3054.37 cm**-1
 158:      3069.33 cm**-1
 159:      3069.62 cm**-1
 160:      3070.05 cm**-1
 161:      3070.24 cm**-1
 162:      3075.35 cm**-1
 163:      3076.57 cm**-1
 164:      3076.65 cm**-1
 165:      3077.76 cm**-1
 166:      3077.82 cm**-1
 167:      3079.06 cm**-1
 168:      3079.15 cm**-1
 169:      3080.22 cm**-1
 170:      3084.71 cm**-1
 171:      3086.68 cm**-1
 172:      3086.96 cm**-1
 173:      3093.26 cm**-1
 174:      3093.72 cm**-1
 175:      3094.05 cm**-1
 176:      3094.18 cm**-1
 177:      3107.10 cm**-1
 178:      3110.18 cm**-1
 179:      3119.94 cm**-1

IR SPECTRUM
-----------

 Mode   freq       eps      Int      T**2         TX        TY        TZ
       cm**-1   L/(mol*cm) km/mol    a.u.
----------------------------------------------------------------------------
  7:     16.78   0.000131    0.66  0.002442  ( 0.007937 -0.047403  0.011486)
  8:     20.65   0.000001    0.00  0.000014  (-0.003025 -0.000422 -0.002142)
  9:     26.30   0.000070    0.36  0.000835  (-0.021687 -0.018150 -0.005906)
 10:     42.14   0.000080    0.41  0.000596  ( 0.022911 -0.005340  0.006504)
 11:     59.44   0.000148    0.75  0.000775  ( 0.007515 -0.002341  0.026711)
 12:     77.77   0.000071    0.36  0.000283  (-0.003631 -0.005784  0.015381)
 13:     91.83   0.000087    0.44  0.000296  (-0.001305 -0.017154 -0.000639)
 14:     98.04   0.000042    0.21  0.000135  (-0.004592  0.009117  0.005572)
 15:    101.96   0.000031    0.16  0.000096  ( 0.001809 -0.000030 -0.009614)
 16:    129.18   0.000176    0.89  0.000425  ( 0.003865  0.000714  0.020228)
 17:    154.58   0.000015    0.07  0.000030  ( 0.004407  0.002342  0.002232)
 18:    209.37   0.000021    0.10  0.000031  (-0.003340  0.004054  0.001826)
 19:    221.10   0.000057    0.29  0.000081  (-0.005057  0.004563  0.005884)
 20:    223.48   0.000012    0.06  0.000017  ( 0.003128 -0.000895 -0.002500)
 21:    231.12   0.000041    0.20  0.000055  (-0.000567 -0.002784 -0.006830)
 22:    235.68   0.000000    0.00  0.000000  ( 0.000496 -0.000075  0.000385)
 23:    246.63   0.000067    0.34  0.000085  ( 0.008173 -0.004035  0.001263)
 24:    260.35   0.000113    0.57  0.000135  (-0.000586  0.000933 -0.011568)
 25:    275.67   0.000114    0.57  0.000129  ( 0.006997 -0.007426  0.004959)
 26:    286.04   0.000181    0.92  0.000198  ( 0.010016 -0.005450 -0.008217)
 27:    288.15   0.000009    0.04  0.000009  (-0.001465  0.002594 -0.000674)
 28:    293.13   0.000082    0.42  0.000087  (-0.009021 -0.002173 -0.001170)
 29:    300.32   0.000003    0.01  0.000003  (-0.001687 -0.000219 -0.000119)
 30:    300.58   0.000002    0.01  0.000002  (-0.001371 -0.000750  0.000055)
 31:    302.13   0.000035    0.18  0.000036  (-0.002657 -0.001659  0.005118)
 32:    308.31   0.000010    0.05  0.000010  ( 0.001471  0.001722  0.002163)
 33:    312.53   0.000032    0.16  0.000032  ( 0.000370  0.000013  0.005620)
 34:    319.47   0.000158    0.80  0.000154  (-0.004176 -0.006941  0.009404)
 35:    331.46   0.000247    1.25  0.000233  ( 0.000573 -0.014214 -0.005534)
 36:    349.86   0.000397    2.01  0.000354  ( 0.017808 -0.003381 -0.005040)
 37:    356.22   0.000082    0.41  0.000072  ( 0.006713  0.004639  0.002287)
 38:    358.70   0.000088    0.44  0.000076  ( 0.003907  0.004352  0.006475)
 39:    366.43   0.000188    0.95  0.000160  ( 0.002867  0.011161  0.005186)
 40:    368.66   0.000120    0.61  0.000102  ( 0.007946  0.006201  0.000455)
 41:    381.41   0.000075    0.38  0.000061  (-0.004097 -0.005675 -0.003506)
 42:    404.02   0.000158    0.80  0.000122  (-0.005851 -0.006016 -0.007171)
 43:    437.83   0.001063    5.37  0.000757  ( 0.003452 -0.019950  0.018641)
 44:    443.23   0.000318    1.61  0.000224  ( 0.008068 -0.012571 -0.000992)
 45:    468.77   0.000517    2.61  0.000344  ( 0.005744  0.003336 -0.017319)
 46:    497.94   0.000461    2.33  0.000289  ( 0.000263 -0.012456 -0.011566)
 47:    501.19   0.000022    0.11  0.000014  (-0.002081  0.002169 -0.002230)
 48:    509.93   0.000032    0.16  0.000020  ( 0.003076 -0.002376 -0.002150)
 49:    514.69   0.000985    4.98  0.000597  (-0.006590  0.010790  0.020909)
 50:    520.50   0.000338    1.71  0.000203  (-0.004582  0.000101  0.013478)
 51:    549.78   0.000593    3.00  0.000337  ( 0.004823  0.013461 -0.011497)
 52:    555.38   0.000227    1.15  0.000128  (-0.002787  0.010365  0.003551)
 53:    571.15   0.000962    4.86  0.000526  (-0.021196 -0.005005 -0.007159)
 54:    572.67   0.000406    2.05  0.000221  (-0.013504  0.006059 -0.001409)
 55:    614.73   0.000909    4.59  0.000462  ( 0.012307 -0.017538 -0.001576)
 56:    655.12   0.004742   23.96  0.002259  (-0.014972 -0.043366  0.012410)
 57:    660.11   0.000974    4.92  0.000461  (-0.011448 -0.000723  0.018141)
 58:    660.22   0.002239   11.32  0.001058  (-0.006098  0.030802  0.008507)
 59:    669.82   0.001653    8.35  0.000770  ( 0.009678 -0.015139  0.021149)
 60:    689.14   0.006435   32.52  0.002914  ( 0.040429 -0.034637 -0.008930)
 61:    741.00   0.002881   14.56  0.001213  (-0.006207  0.020823 -0.027223)
 62:    758.75   0.000085    0.43  0.000035  ( 0.002875  0.005049 -0.001143)
 63:    768.54   0.000755    3.81  0.000306  ( 0.011243 -0.009286 -0.009685)
 64:    791.20   0.000564    2.85  0.000222  (-0.004342  0.013380 -0.004954)
 65:    821.21   0.000436    2.20  0.000166  (-0.006257 -0.005136  0.010013)
 66:    825.02   0.001081    5.46  0.000409  ( 0.013996 -0.014451 -0.002040)
 67:    837.16   0.000986    4.98  0.000368  (-0.009181  0.012724  0.011017)
 68:    839.50   0.002241   11.33  0.000833  (-0.007704  0.010281  0.025848)
 69:    841.04   0.004599   23.24  0.001706  (-0.002300  0.034539  0.022544)
 70:    844.35   0.011533   58.28  0.004262  ( 0.022921 -0.009051 -0.060458)
 71:    879.82   0.000523    2.64  0.000186  ( 0.000914  0.009941  0.009266)
 72:    889.50   0.000378    1.91  0.000133  (-0.006191  0.005185 -0.008215)
 73:    901.26   0.000416    2.10  0.000144  (-0.005033  0.010163  0.003908)
 74:    901.82   0.000066    0.33  0.000023  (-0.002461  0.003791 -0.001518)
 75:    902.84   0.000496    2.51  0.000171  (-0.004370  0.012312 -0.000846)
 76:    903.10   0.000025    0.13  0.000009  ( 0.000031  0.002670  0.001204)
 77:    903.38   0.000846    4.27  0.000292  (-0.004798  0.014892  0.006886)
 78:    922.69   0.000778    3.93  0.000263  (-0.011758  0.010447 -0.003951)
 79:    934.00   0.000393    1.99  0.000131  ( 0.006780 -0.006999 -0.006030)
 80:    934.59   0.000166    0.84  0.000055  (-0.001748  0.004394  0.005752)
 81:    935.52   0.000535    2.70  0.000178  (-0.000995  0.013320 -0.000201)
 82:    937.76   0.001237    6.25  0.000412  ( 0.003724 -0.015543  0.012502)
 83:    941.11   0.003687   18.63  0.001223  ( 0.006819 -0.023784 -0.024709)
 84:    947.67   0.001282    6.48  0.000422  (-0.000690 -0.005176  0.019872)
 85:    961.84   0.000577    2.91  0.000187  ( 0.009113 -0.000288 -0.010197)
 86:    962.28   0.000034    0.17  0.000011  ( 0.002251  0.000229 -0.002458)
 87:    964.95   0.003322   16.79  0.001074  ( 0.022677  0.000784 -0.023654)
 88:    969.87   0.000055    0.28  0.000018  ( 0.001898 -0.002385 -0.002889)
 89:    978.38   0.003803   19.22  0.001213  (-0.022917  0.000968  0.026207)
 90:   1010.14   0.001877    9.49  0.000580  (-0.013337 -0.020000  0.001456)
 91:   1045.19   0.028512  144.09  0.008513  ( 0.027993 -0.032676 -0.081618)
 92:   1092.51   0.001090    5.51  0.000311  (-0.015032 -0.009217 -0.000719)
 93:   1092.95   0.001151    5.82  0.000329  ( 0.011759 -0.003223  0.013419)
 94:   1113.14   0.000032    0.16  0.000009  (-0.001169  0.002601  0.000900)
 95:   1126.77   0.116854  590.53  0.032363  ( 0.054287 -0.069154 -0.156952)
 96:   1131.31   0.010165   51.37  0.002804  ( 0.030474  0.040268 -0.015928)
 97:   1146.62   0.001443    7.29  0.000393  (-0.010988 -0.008509  0.014124)
 98:   1148.37   0.005850   29.57  0.001590  (-0.028158  0.023995 -0.014872)
 99:   1148.75   0.004851   24.52  0.001318  (-0.024495 -0.026411  0.004513)
100:   1171.88   0.001615    8.16  0.000430  (-0.000160  0.007056  0.019500)
101:   1199.71   0.006625   33.48  0.001723  (-0.002024 -0.021479 -0.035465)
102:   1200.24   0.002443   12.35  0.000635  (-0.020909 -0.014030  0.001102)
103:   1200.69   0.004127   20.86  0.001073  (-0.029135  0.009072 -0.011893)
104:   1208.59   0.008137   41.12  0.002101  ( 0.014120 -0.027520 -0.033828)
105:   1223.78   0.001251    6.32  0.000319  ( 0.000578 -0.016794 -0.006059)
106:   1226.05   0.000195    0.99  0.000050  ( 0.003023  0.000626 -0.006331)
107:   1226.17   0.000088    0.44  0.000022  (-0.002420  0.002956  0.002772)
108:   1241.85   0.014389   72.72  0.003616  ( 0.024515 -0.012859 -0.053381)
109:   1242.88   0.005404   27.31  0.001357  ( 0.000097  0.026987  0.025071)
110:   1284.36   0.002696   13.63  0.000655  (-0.013521  0.008215  0.020119)
111:   1291.02   0.002563   12.95  0.000620  ( 0.024170  0.003076 -0.005100)
112:   1315.30   0.018120   91.57  0.004299  (-0.054221 -0.004717 -0.036564)
113:   1322.08   0.023823  120.39  0.005623  ( 0.048253  0.046888  0.033110)
114:   1331.76   0.005510   27.85  0.001291  (-0.017584 -0.025995  0.017501)
115:   1332.59   0.005750   29.06  0.001347  ( 0.016014 -0.029537  0.014756)
116:   1334.45   0.019153   96.79  0.004479  ( 0.014699 -0.012281 -0.064125)
117:   1334.77   0.002090   10.56  0.000489  (-0.007446  0.012122  0.016920)
118:   1336.90   0.049097  248.12  0.011460  ( 0.011644 -0.017574 -0.104957)
119:   1339.31   0.059348  299.92  0.013828  ( 0.063228 -0.045834 -0.087919)
120:   1342.17   0.005478   27.68  0.001274  ( 0.028376 -0.018650 -0.010980)
121:   1342.71   0.014396   72.75  0.003346  (-0.057706  0.003680 -0.001495)
122:   1347.33   0.026612  134.49  0.006164  (-0.005324 -0.057849 -0.052811)
123:   1350.46   0.000160    0.81  0.000037  (-0.000465  0.004622  0.003930)
124:   1351.64   0.013990   70.70  0.003230  (-0.004384  0.041840  0.038211)
125:   1380.99   0.032880  166.16  0.007430  (-0.020808  0.061085  0.057145)
126:   1389.68   0.000042    0.21  0.000009  ( 0.002024  0.000574 -0.002226)
127:   1389.74   0.000004    0.02  0.000001  (-0.000109  0.000951 -0.000239)
128:   1398.60   0.000514    2.60  0.000115  ( 0.007588  0.003712 -0.006588)
129:   1398.84   0.000469    2.37  0.000105  ( 0.003936 -0.004606  0.008242)
130:   1400.27   0.000434    2.19  0.000097  (-0.006195  0.000708  0.007601)
131:   1400.73   0.000174    0.88  0.000039  ( 0.001982 -0.004861 -0.003363)
132:   1404.86   0.005060   25.57  0.001124  (-0.017734 -0.004802  0.028043)
133:   1405.33   0.001066    5.39  0.000237  ( 0.009443  0.003331  0.011681)
134:   1411.23   0.037743  190.74  0.008346  ( 0.042983 -0.014633 -0.079275)
135:   1418.54   0.003740   18.90  0.000823  ( 0.015900  0.018596  0.014972)
136:   1418.73   0.000739    3.74  0.000163  (-0.003160  0.005986 -0.010806)
137:   1419.23   0.005359   27.08  0.001178  (-0.001652 -0.023097 -0.025342)
138:   1425.01   0.000290    1.47  0.000064  ( 0.004871 -0.006315  0.000035)
139:   1425.05   0.000645    3.26  0.000141  ( 0.009329  0.004076  0.006135)
140:   1428.18   0.012508   63.21  0.002733  ( 0.019008 -0.013695 -0.046737)
141:   1428.59   0.003637   18.38  0.000794  ( 0.006723  0.023498  0.014036)
142:   1440.55   0.001459    7.37  0.000316  ( 0.002796 -0.008843 -0.015170)
143:   1440.94   0.001458    7.37  0.000316  ( 0.009032 -0.000388 -0.015298)
144:   1464.78   0.000246    1.24  0.000052  (-0.000759  0.005407  0.004745)
145:   1505.00   0.010962   55.40  0.002273  ( 0.011657 -0.032027 -0.033339)
146:   1594.39   0.006543   33.07  0.001281  ( 0.000419 -0.025437 -0.025168)
147:   1677.64   0.016503   83.40  0.003070  (-0.021139  0.007518  0.050660)
148:   2978.94   0.000017    0.09  0.000002  ( 0.000194  0.001089 -0.000744)
149:   2979.57   0.000030    0.15  0.000003  ( 0.000570  0.000327 -0.001651)
150:   2979.69   0.003591   18.15  0.000376  ( 0.007882  0.015733 -0.008153)
151:   2980.59   0.003597   18.18  0.000377  ( 0.008306 -0.016802  0.005034)
152:   2983.91   0.001776    8.97  0.000186  (-0.008862 -0.008793 -0.005463)
153:   2984.01   0.001872    9.46  0.000196  ( 0.011509 -0.006647  0.004376)
154:   2986.15   0.006858   34.66  0.000717  (-0.005543  0.011506  0.023528)
155:   2986.27   0.002490   12.58  0.000260  ( 0.009318  0.002106 -0.012996)
156:   3053.68   0.001311    6.62  0.000134  (-0.005070 -0.004998 -0.009124)
157:   3054.37   0.000400    2.02  0.000041  ( 0.004227  0.001450  0.004576)
158:   3069.33   0.000400    2.02  0.000041  ( 0.006075  0.001303 -0.001435)
159:   3069.62   0.000100    0.51  0.000010  ( 0.001991 -0.001172 -0.002197)
160:   3070.05   0.001423    7.19  0.000145  ( 0.009202  0.003494  0.006907)
161:   3070.24   0.001444    7.30  0.000147  (-0.011633 -0.000143 -0.003375)
162:   3075.35   0.001272    6.43  0.000129  (-0.004625  0.007269  0.007407)
163:   3076.57   0.001723    8.71  0.000175  ( 0.010724 -0.002645  0.007266)
164:   3076.65   0.000923    4.67  0.000094  (-0.005243 -0.000117  0.008133)
165:   3077.76   0.005061   25.57  0.000513  (-0.020173  0.009797  0.003188)
166:   3077.82   0.002662   13.45  0.000270  (-0.013545 -0.008437 -0.003910)
167:   3079.06   0.003153   15.93  0.000320  ( 0.016084  0.006602  0.004153)
168:   3079.15   0.007262   36.70  0.000736  (-0.004092 -0.012453 -0.023753)
169:   3080.22   0.006392   32.30  0.000648  ( 0.010147 -0.002417 -0.023212)
170:   3084.71   0.000966    4.88  0.000098  ( 0.006113 -0.007767 -0.000234)
171:   3086.68   0.001546    7.81  0.000156  (-0.012280 -0.002343  0.000081)
172:   3086.96   0.001599    8.08  0.000162  (-0.006736 -0.008439  0.006714)
173:   3093.26   0.001927    9.74  0.000194  (-0.000511  0.007723 -0.011597)
174:   3093.72   0.001588    8.03  0.000160  (-0.005218  0.000167  0.011531)
175:   3094.05   0.002566   12.97  0.000259  ( 0.010618 -0.012029 -0.001164)
176:   3094.18   0.003139   15.87  0.000317  (-0.006942 -0.016158  0.002714)
177:   3107.10   0.001300    6.57  0.000131  (-0.006328  0.008701 -0.003854)
178:   3110.18   0.003700   18.70  0.000371  ( 0.016665  0.008324  0.004926)
179:   3119.94   0.002100   10.61  0.000210  ( 0.004963  0.007195 -0.011561)

--------------------------
THERMOCHEMISTRY AT 298.15K
--------------------------

Temperature         ... 298.15 K
Pressure            ... 1.00 atm
Total Mass          ... 382.11 AMU

Throughout the following assumptions are being made:
  (1) The electronic state is orbitally nondegenerate
  (2) There are no thermally accessible electronically excited states
  (3) Hindered rotations indicated by low frequency modes are not
      treated as such but are treated as vibrations and this may
      cause some error
  (4) All equations used are the standard statistical mechanics
      equations for an ideal gas
  (5) All vibrations are strictly harmonic

freq.      16.78  E(vib)   ...       0.57
freq.      20.65  E(vib)   ...       0.56
freq.      26.30  E(vib)   ...       0.56
freq.      42.14  E(vib)   ...       0.53
freq.      59.44  E(vib)   ...       0.51
freq.      77.77  E(vib)   ...       0.49
freq.      91.83  E(vib)   ...       0.47
freq.      98.04  E(vib)   ...       0.46
freq.     101.96  E(vib)   ...       0.46
freq.     129.18  E(vib)   ...       0.43
freq.     154.58  E(vib)   ...       0.40
freq.     209.37  E(vib)   ...       0.34
freq.     221.10  E(vib)   ...       0.33
freq.     223.48  E(vib)   ...       0.33
freq.     231.12  E(vib)   ...       0.32
freq.     235.68  E(vib)   ...       0.32
freq.     246.63  E(vib)   ...       0.31
freq.     260.35  E(vib)   ...       0.30
freq.     275.67  E(vib)   ...       0.28
freq.     286.04  E(vib)   ...       0.27
freq.     288.15  E(vib)   ...       0.27
freq.     293.13  E(vib)   ...       0.27
freq.     300.32  E(vib)   ...       0.26
freq.     300.58  E(vib)   ...       0.26
freq.     302.13  E(vib)   ...       0.26
freq.     308.31  E(vib)   ...       0.26
freq.     312.53  E(vib)   ...       0.25
freq.     319.47  E(vib)   ...       0.25
freq.     331.46  E(vib)   ...       0.24
freq.     349.86  E(vib)   ...       0.23
freq.     356.22  E(vib)   ...       0.22
freq.     358.70  E(vib)   ...       0.22
freq.     366.43  E(vib)   ...       0.22
freq.     368.66  E(vib)   ...       0.21
freq.     381.41  E(vib)   ...       0.21
freq.     404.02  E(vib)   ...       0.19
freq.     437.83  E(vib)   ...       0.17
freq.     443.23  E(vib)   ...       0.17
freq.     468.77  E(vib)   ...       0.16
freq.     497.94  E(vib)   ...       0.14
freq.     501.19  E(vib)   ...       0.14
freq.     509.93  E(vib)   ...       0.14
freq.     514.69  E(vib)   ...       0.13
freq.     520.50  E(vib)   ...       0.13
freq.     549.78  E(vib)   ...       0.12
freq.     555.38  E(vib)   ...       0.12
freq.     571.15  E(vib)   ...       0.11
freq.     572.67  E(vib)   ...       0.11
freq.     614.73  E(vib)   ...       0.10
freq.     655.12  E(vib)   ...       0.08
freq.     660.11  E(vib)   ...       0.08
freq.     660.22  E(vib)   ...       0.08
freq.     669.82  E(vib)   ...       0.08
freq.     689.14  E(vib)   ...       0.07
freq.     741.00  E(vib)   ...       0.06
freq.     758.75  E(vib)   ...       0.06
freq.     768.54  E(vib)   ...       0.06
freq.     791.20  E(vib)   ...       0.05
freq.     821.21  E(vib)   ...       0.05
freq.     825.02  E(vib)   ...       0.04
freq.     837.16  E(vib)   ...       0.04
freq.     839.50  E(vib)   ...       0.04
freq.     841.04  E(vib)   ...       0.04
freq.     844.35  E(vib)   ...       0.04
freq.     879.82  E(vib)   ...       0.04
freq.     889.50  E(vib)   ...       0.04
freq.     901.26  E(vib)   ...       0.03
freq.     901.82  E(vib)   ...       0.03
freq.     902.84  E(vib)   ...       0.03
freq.     903.10  E(vib)   ...       0.03
freq.     903.38  E(vib)   ...       0.03
freq.     922.69  E(vib)   ...       0.03
freq.     934.00  E(vib)   ...       0.03
freq.     934.59  E(vib)   ...       0.03
freq.     935.52  E(vib)   ...       0.03
freq.     937.76  E(vib)   ...       0.03
freq.     941.11  E(vib)   ...       0.03
freq.     947.67  E(vib)   ...       0.03
freq.     961.84  E(vib)   ...       0.03
freq.     962.28  E(vib)   ...       0.03
freq.     964.95  E(vib)   ...       0.03
freq.     969.87  E(vib)   ...       0.03
freq.     978.38  E(vib)   ...       0.03
freq.    1010.14  E(vib)   ...       0.02
freq.    1045.19  E(vib)   ...       0.02
freq.    1092.51  E(vib)   ...       0.02
freq.    1092.95  E(vib)   ...       0.02
freq.    1113.14  E(vib)   ...       0.01
freq.    1126.77  E(vib)   ...       0.01
freq.    1131.31  E(vib)   ...       0.01
freq.    1146.62  E(vib)   ...       0.01
freq.    1148.37  E(vib)   ...       0.01
freq.    1148.75  E(vib)   ...       0.01
freq.    1171.88  E(vib)   ...       0.01
freq.    1199.71  E(vib)   ...       0.01
freq.    1200.24  E(vib)   ...       0.01
freq.    1200.69  E(vib)   ...       0.01
freq.    1208.59  E(vib)   ...       0.01
freq.    1223.78  E(vib)   ...       0.01
freq.    1226.05  E(vib)   ...       0.01
freq.    1226.17  E(vib)   ...       0.01
freq.    1241.85  E(vib)   ...       0.01
freq.    1242.88  E(vib)   ...       0.01
freq.    1284.36  E(vib)   ...       0.01
freq.    1291.02  E(vib)   ...       0.01
freq.    1315.30  E(vib)   ...       0.01
freq.    1322.08  E(vib)   ...       0.01
freq.    1331.76  E(vib)   ...       0.01
freq.    1332.59  E(vib)   ...       0.01
freq.    1334.45  E(vib)   ...       0.01
freq.    1334.77  E(vib)   ...       0.01
freq.    1336.90  E(vib)   ...       0.01
freq.    1339.31  E(vib)   ...       0.01
freq.    1342.17  E(vib)   ...       0.01
freq.    1342.71  E(vib)   ...       0.01
freq.    1347.33  E(vib)   ...       0.01
freq.    1350.46  E(vib)   ...       0.01
freq.    1351.64  E(vib)   ...       0.01
freq.    1380.99  E(vib)   ...       0.01
freq.    1389.68  E(vib)   ...       0.00
freq.    1389.74  E(vib)   ...       0.00
freq.    1398.60  E(vib)   ...       0.00
freq.    1398.84  E(vib)   ...       0.00
freq.    1400.27  E(vib)   ...       0.00
freq.    1400.73  E(vib)   ...       0.00
freq.    1404.86  E(vib)   ...       0.00
freq.    1405.33  E(vib)   ...       0.00
freq.    1411.23  E(vib)   ...       0.00
freq.    1418.54  E(vib)   ...       0.00
freq.    1418.73  E(vib)   ...       0.00
freq.    1419.23  E(vib)   ...       0.00
freq.    1425.01  E(vib)   ...       0.00
freq.    1425.05  E(vib)   ...       0.00
freq.    1428.18  E(vib)   ...       0.00
freq.    1428.59  E(vib)   ...       0.00
freq.    1440.55  E(vib)   ...       0.00
freq.    1440.94  E(vib)   ...       0.00
freq.    1464.78  E(vib)   ...       0.00
freq.    1505.00  E(vib)   ...       0.00
freq.    1594.39  E(vib)   ...       0.00
freq.    1677.64  E(vib)   ...       0.00
freq.    2978.94  E(vib)   ...       0.00
freq.    2979.57  E(vib)   ...       0.00
freq.    2979.69  E(vib)   ...       0.00

Rotational constants in cm-1:     0.014337     0.002435     0.002335

                             ****ORCA TERMINATED NORMALLY****
TOTAL RUN TIME: 0 days 1 hours 32 minutes 12 seconds 349 msec
