   * xtb version 6.5.0 (homebrew) compiled by 'nhattrup@GPGGRP-SHANNON.CHEME.CMU.EDU' on
          program call               : /opt/homebrew/bin/xtb bvl_bpin2_scan_0-0_xtb.xyz --chrg 0 --uhf 0 --opt --input xcontrol_bvl_bpin2_scan_0-0_xtb

   ID    Z sym.   atoms
    1    6 C      1, 2, 4-7, 10-12, 14, 16, 19-24, 26, 27, 29-31
    2    8 O      3, 8, 18, 25
    3    5 B      9, 17
    4    1 H      13, 15, 28, 32-60
constraining bond 12 31 to    1.5000000 Å, actual value:    1.5360358 Å
constraining bond 10 29 to    2.5000000 Å, actual value:    2.4978138 Å

          :  Hamiltonian                  GFN2-xTB          :
 * total energy  :   -82.2213451 Eh     change       -0.9031282E-08 Eh
 * total energy  :   -82.2817088 Eh     change       -0.6036369E-01 Eh
 * total energy  :   -82.3029466 Eh     change       -0.2123775E-01 Eh
 * total energy  :   -82.3084776 Eh     change       -0.5531082E-02 Eh
 * total energy  :   -82.3116365 Eh     change       -0.3158863E-02 Eh
 * total energy  :   -82.3138720 Eh     change       -0.2235531E-02 Eh
 * total energy  :   -82.3151640 Eh     change       -0.1291963E-02 Eh
 * total energy  :   -82.3160034 Eh     change       -0.8393724E-03 Eh
 * total energy  :   -82.3165867 Eh     change       -0.5833442E-03 Eh
 * total energy  :   -82.3171852 Eh     change       -0.5984844E-03 Eh
 * total energy  :   -82.3220528 Eh     change       -0.5627019E-05 Eh
 * total energy  :   -82.3220585 Eh     change       -0.5718482E-05 Eh
 * total energy  :   -82.3220643 Eh     change       -0.5745680E-05 Eh
 * total energy  :   -82.3220700 Eh     change       -0.5703985E-05 Eh
 * total energy  :   -82.3220756 Eh     change       -0.5603400E-05 Eh
 * total energy  :   -82.3220811 Eh     change       -0.5454392E-05 Eh
 * total energy  :   -82.3220863 Eh     change       -0.5282658E-05 Eh
 * total energy  :   -82.3220914 Eh     change       -0.5113998E-05 Eh
 * total energy  :   -82.3220964 Eh     change       -0.4970329E-05 Eh
   *** GEOMETRY OPTIMIZATION CONVERGED AFTER 90 ITERATIONS ***

 final structure:
================
60
 xtb: 6.5.0 (homebrew)
C            3.42012356282913      -38.10350170700512       16.17434684859118
C            3.62550296505709      -38.27947977207869       17.67786456662968
O            3.23390467033203      -37.08502483182274       18.35131123950850
C            2.70314217294442      -39.39740742528487       18.18048868207736
C            5.12313040857954      -38.46879326716547       18.12282866191310
C            5.51114317366500      -39.90186055109086       18.48238627850453
C            6.12792972671742      -37.92153049665426       17.10073999166017
O            5.22546796861963      -37.64553668502546       19.28329179240882
B            4.15106915522381      -36.79987663443804       19.32432317814055
C            4.00449886755169      -35.63673586534526       20.34912848272225
C            5.02755936995722      -35.32359629647028       21.15649327178316
C            5.08004250849683      -34.26723722818677       22.16465721405043
H            6.03174723019606      -34.22635736185867       22.68362226635054
C            3.87845798313414      -33.91659260402135       23.02888174819077
H            4.11687109321952      -33.66946784508416       24.05603161638521
C            2.58150743892516      -34.60543908647195       22.91091198634661
B            1.81520097037741      -34.85894897122536       24.25011547576095
O            2.35353443590944      -34.60221781225593       25.48213031975368
C            1.47288017133013      -35.11619913841920       26.48095938905467
C            1.41472764586562      -34.14729947831688       27.65924027906571
C            2.06578644556209      -36.44966898293795       26.95377577250345
C            0.12286589571399      -35.29587916108448       25.69891290144979
C           -0.79860752261381      -34.07563932942828       25.82118614895342
C           -0.66420155627430      -36.55559751746329       26.05099196306697
O            0.54760698650685      -35.36118893161672       24.33669649161366
C            2.06230120196240      -35.02524056546677       21.74875098433783
C            2.69138246401876      -34.87429494086201       20.39232088950330
H            2.03039819757113      -35.31096678173523       19.64146889468818
C            2.88954664475201      -33.41610068631621       20.07610451727783
C            3.64009864883425      -32.58793092309848       20.79286009559798
C            4.40088267784193      -32.93886437603468       21.99654188862198
H            4.94685564717082      -32.09738406248217       22.41017056345745
H            2.35729011690375      -37.99027109428685       15.97535603734565
H            3.78693648221558      -38.97548032389947       15.63968012558391
H            3.92609100043705      -37.21515121637802       15.81043256449304
H            1.67405393987655      -39.11693916323133       17.96753387590455
H            2.80314157971025      -39.51276586405347       19.25673340940643
H            2.92194300236689      -40.33937055436403       17.68661310659429
H            5.36830782415240      -40.55684828319610       17.62717635801082
H            4.92865317124972      -40.26746716780811       19.32171302459440
H            6.55990366131565      -39.91999046002538       18.76826949014043
H            6.13358453688968      -38.51931875293819       16.19431096771737
H            7.11945693834793      -37.94565242376987       17.54707440451186
H            5.89483675328386      -36.88744150094153       16.86016559177359
H            5.92800051909930      -35.91906905244258       21.06949780106321
H            2.39043292583047      -34.11626144551474       28.13792331802535
H            0.67791480577894      -34.48207267234361       28.38440069596735
H            1.16947215272683      -33.14285145110288       27.32997132135360
H            3.07320733557024      -36.26905489696437       27.32173762964353
H            2.13245179688888      -37.14568190524624       26.12125836397023
H            1.47009087532346      -36.88369950293884       27.75119724539554
H           -1.19922483194701      -33.98549416779487       26.82649160605571
H           -1.62165462927486      -34.19266324622898       25.12011741464398
H           -0.25862678103959      -33.17005753426601       25.55610272808134
H           -0.91003283826901      -36.56072072842792       27.10955013197722
H           -0.10274157048747      -37.45070243680107       25.80418707173275
H           -1.58633731491035      -36.56684814516010       25.47537351943164
H            1.10287165467335      -35.52261690281053       21.78304743373271
H            2.37254033125741      -33.04008003187163       19.20421800522762
H            3.71781931206864      -31.55052975850817       20.49016235761090

          :  Hamiltonian                  GFN2-xTB          :
         :: total energy             -82.322096418846 Eh    ::
         :: gradient norm              0.000163948445 Eh/a0 ::
         :: HOMO-LUMO gap              3.522416956373 eV    ::
         :: SCC energy               -83.404841027740 Eh    ::
         :: -> dispersion             -0.061169738142 Eh    ::
         :: repulsion energy           1.081917766400 Eh    ::

    * Orbital Energies and Occupations

         #    Occupation            Energy/Eh            Energy/eV
      -------------------------------------------------------------
         1        2.0000           -0.6882148             -18.7273
       ...           ...                  ...                  ...
        63        2.0000           -0.4369660             -11.8905
        64        2.0000           -0.4350526             -11.8384
        65        2.0000           -0.4253914             -11.5755
        66        2.0000           -0.4195403             -11.4163
        67        2.0000           -0.4186928             -11.3932
        68        2.0000           -0.4118454             -11.2069
        69        2.0000           -0.4056401             -11.0380
        70        2.0000           -0.3987446             -10.8504
        71        2.0000           -0.3968153             -10.7979
        72        2.0000           -0.3959014             -10.7730
        73        2.0000           -0.3884835             -10.5712
        74        2.0000           -0.3530816              -9.6078
        75        2.0000           -0.3509156              -9.5489 (HOMO)
        76                         -0.2214691              -6.0265 (LUMO)
        77                         -0.2140009              -5.8233
        78                         -0.1905811              -5.1860
        79                         -0.1021562              -2.7798
        80                         -0.0944604              -2.5704
        81                          0.0081032               0.2205
        82                          0.0110341               0.3003
        83                          0.0151917               0.4134
        84                          0.0292463               0.7958
        85                          0.0297333               0.8091
        86                          0.0568196               1.5461
       ...                                ...                  ...
       144                          0.6730849              18.3156
      -------------------------------------------------------------
                  HL-Gap            0.1294464 Eh            3.5224 eV

     #   Z          covCN         q      C6AA      α(0)
     1   6 C        3.755    -0.117    22.795     6.808
     2   6 C        3.857     0.129    18.458     6.110
     3   8 O        1.638    -0.370    20.286     6.080
     4   6 C        3.755    -0.116    22.770     6.804
     5   6 C        3.858     0.129    18.455     6.110
     6   6 C        3.755    -0.117    22.799     6.808
     7   6 C        3.755    -0.116    22.777     6.805
     8   8 O        1.638    -0.373    20.348     6.089
     9   5 B        2.658     0.431    15.575     6.646
    10   6 C        2.871    -0.085    30.118     8.996
    11   6 C        2.895    -0.030    28.745     8.790
    12   6 C        3.860    -0.012    20.747     6.478
    13   1 H        0.925     0.030     2.582     2.513
    14   6 C        3.863    -0.019    20.864     6.496
    15   1 H        0.925     0.042     2.428     2.437
    16   6 C        2.863    -0.086    30.155     9.001
    17   5 B        2.664     0.433    15.532     6.632
    18   8 O        1.638    -0.374    20.370     6.092
    19   6 C        3.861     0.129    18.450     6.109
    20   6 C        3.755    -0.117    22.800     6.809
    21   6 C        3.755    -0.116    22.781     6.806
    22   6 C        3.862     0.129    18.451     6.109
    23   6 C        3.755    -0.116    22.786     6.806
    24   6 C        3.755    -0.118    22.806     6.809
    25   8 O        1.638    -0.371    20.301     6.082
    26   6 C        2.905    -0.029    28.713     8.786
    27   6 C        3.864    -0.017    20.829     6.490
    28   1 H        0.924     0.044     2.398     2.422
    29   6 C        2.898    -0.034    28.849     8.807
    30   6 C        2.889    -0.038    28.943     8.820
    31   6 C        3.862    -0.011    20.729     6.475
    32   1 H        0.925     0.029     2.596     2.520
    33   1 H        0.925     0.054     2.270     2.356
    34   1 H        0.925     0.039     2.458     2.452
    35   1 H        0.925     0.051     2.302     2.373
    36   1 H        0.925     0.052     2.294     2.368
    37   1 H        0.925     0.043     2.403     2.424
    38   1 H        0.925     0.042     2.425     2.435
    39   1 H        0.925     0.040     2.454     2.450
    40   1 H        0.925     0.051     2.303     2.373
    41   1 H        0.925     0.054     2.271     2.357
    42   1 H        0.925     0.042     2.419     2.432
    43   1 H        0.925     0.052     2.297     2.370
    44   1 H        0.925     0.044     2.402     2.424
    45   1 H        0.925     0.035     2.515     2.480
    46   1 H        0.925     0.054     2.267     2.354
    47   1 H        0.925     0.040     2.451     2.448
    48   1 H        0.925     0.052     2.292     2.368
    49   1 H        0.925     0.052     2.294     2.368
    50   1 H        0.925     0.044     2.402     2.424
    51   1 H        0.925     0.043     2.414     2.429
    52   1 H        0.925     0.043     2.410     2.427
    53   1 H        0.925     0.053     2.286     2.364
    54   1 H        0.925     0.044     2.400     2.423
    55   1 H        0.925     0.040     2.448     2.447
    56   1 H        0.925     0.052     2.291     2.367
    57   1 H        0.925     0.055     2.260     2.351
    58   1 H        0.925     0.035     2.520     2.482
    59   1 H        0.926     0.026     2.641     2.542
    60   1 H        0.925     0.024     2.679     2.560

Wiberg/Mayer (AO) data.
largest (>0.10) Wiberg bond orders for each atom

     #   Z sym  total        # sym  WBO       # sym  WBO       # sym  WBO
 ---------------------------------------------------------------------------
     1   6 C    3.994 --     2 C    0.996    34 H    0.985    33 H    0.983
                            35 H    0.982
     2   6 C    3.943 --     1 C    0.996     4 C    0.991     3 O    0.954
                             5 C    0.936
     3   8 O    2.235 --     9 B    1.128     2 C    0.954
     4   6 C    3.994 --     2 C    0.991    38 H    0.984    37 H    0.984
                            36 H    0.983
     5   6 C    3.943 --     6 C    0.996     7 C    0.990     8 O    0.954
                             2 C    0.936
     6   6 C    3.994 --     5 C    0.996    39 H    0.985    41 H    0.983
                            40 H    0.982
     7   6 C    3.995 --     5 C    0.990    42 H    0.984    44 H    0.984
                            43 H    0.983
     8   8 O    2.230 --     9 B    1.126     5 C    0.954
     9   5 B    3.377 --     3 O    1.128     8 O    1.126    10 C    1.004
    10   6 C    3.976 --    11 C    1.797     9 B    1.004    27 C    0.966
    11   6 C    3.989 --    10 C    1.797    12 C    1.086    45 H    0.965
    12   6 C    3.950 --    11 C    1.086    13 H    0.971    31 C    0.894
                            14 C    0.882
    13   1 H    0.999 --    12 C    0.971
    14   6 C    3.944 --    16 C    1.063    15 H    0.969    31 C    0.898
                            12 C    0.882
    15   1 H    0.998 --    14 C    0.969
    16   6 C    3.979 --    26 C    1.801    14 C    1.063    17 B    0.995
    17   5 B    3.374 --    25 O    1.134    18 O    1.127    16 C    0.995
    18   8 O    2.231 --    17 B    1.127    19 C    0.952
    19   6 C    3.943 --    20 C    0.997    21 C    0.991    18 O    0.952
                            22 C    0.937
    20   6 C    3.994 --    19 C    0.997    47 H    0.984    46 H    0.983
                            48 H    0.982
    21   6 C    3.994 --    19 C    0.991    51 H    0.984    50 H    0.984
                            49 H    0.983
    22   6 C    3.942 --    24 C    0.997    23 C    0.991    25 O    0.951
                            19 C    0.937
    23   6 C    3.995 --    22 C    0.991    52 H    0.984    54 H    0.984
                            53 H    0.983
    24   6 C    3.994 --    22 C    0.997    55 H    0.984    57 H    0.983
                            56 H    0.982
    25   8 O    2.236 --    17 B    1.134    22 C    0.951
    26   6 C    3.986 --    16 C    1.801    27 C    0.989    58 H    0.968
    27   6 C    3.995 --    26 C    0.989    29 C    0.985    28 H    0.972
                            10 C    0.966
    28   1 H    0.998 --    27 C    0.972
    29   6 C    3.990 --    30 C    1.873    27 C    0.985    59 H    0.969
    30   6 C    3.991 --    29 C    1.873    31 C    1.069    60 H    0.967
    31   6 C    3.947 --    30 C    1.069    32 H    0.971    14 C    0.898
                            12 C    0.894
    32   1 H    0.999 --    31 C    0.971
    33   1 H    0.997 --     1 C    0.983
    34   1 H    0.998 --     1 C    0.985
    35   1 H    0.997 --     1 C    0.982
    36   1 H    0.997 --     4 C    0.983
    37   1 H    0.998 --     4 C    0.984
    38   1 H    0.998 --     4 C    0.984
    39   1 H    0.998 --     6 C    0.985
    40   1 H    0.997 --     6 C    0.982
    41   1 H    0.997 --     6 C    0.983
    42   1 H    0.998 --     7 C    0.984
    43   1 H    0.997 --     7 C    0.983
    44   1 H    0.998 --     7 C    0.984
    45   1 H    0.999 --    11 C    0.965
    46   1 H    0.997 --    20 C    0.983
    47   1 H    0.998 --    20 C    0.984
    48   1 H    0.997 --    20 C    0.982
    49   1 H    0.997 --    21 C    0.983
    50   1 H    0.998 --    21 C    0.984
    51   1 H    0.998 --    21 C    0.984
    52   1 H    0.998 --    23 C    0.984
    53   1 H    0.997 --    23 C    0.983
    54   1 H    0.998 --    23 C    0.984
    55   1 H    0.998 --    24 C    0.984
    56   1 H    0.997 --    24 C    0.982
    57   1 H    0.997 --    24 C    0.983
    58   1 H    0.999 --    26 C    0.968
    59   1 H    0.999 --    29 C    0.969
    60   1 H    0.999 --    30 C    0.967
 ---------------------------------------------------------------------------

molecular dipole:
                 x           y           z       tot (Debye)
 q only:       -0.195      -0.552       0.255
   full:       -0.193      -0.676       0.323       1.967

           -------------------------------------------------
          | TOTAL ENERGY              -82.322096418846 Eh   |
          | GRADIENT NORM               0.000163948445 Eh/α |
          | HOMO-LUMO GAP               3.522416956373 eV   |
           -------------------------------------------------

 * finished run on 2022/07/09 at 18:32:52.309
