   * xtb version 6.5.0 (homebrew) compiled by 'nhattrup@GPGGRP-SHANNON.CHEME.CMU.EDU' on
          program call               : /opt/homebrew/bin/xtb bvl_bpin2_scan_8-5_xtb.xyz --chrg 0 --uhf 0 --opt --input xcontrol_bvl_bpin2_scan_8-5_xtb

   ID    Z sym.   atoms
    1    6 C      1, 2, 4-7, 10-12, 14, 16, 19-24, 26, 27, 29-31
    2    8 O      3, 8, 18, 25
    3    5 B      9, 17
    4    1 H      13, 15, 28, 32-60
constraining bond 12 31 to    2.3889000 Å, actual value:    2.2764715 Å
constraining bond 10 29 to    1.9444000 Å, actual value:    2.0520538 Å

          :  Hamiltonian                  GFN2-xTB          :
 * total energy  :   -82.1188544 Eh     change       -0.1508951E-08 Eh
 * total energy  :   -82.2506726 Eh     change       -0.1318182E+00 Eh
 * total energy  :   -82.2937735 Eh     change       -0.4310089E-01 Eh
 * total energy  :   -82.2944467 Eh     change       -0.6732196E-03 Eh
 * total energy  :   -82.2949657 Eh     change       -0.5189873E-03 Eh
 * total energy  :   -82.2921971 Eh     change        0.2768614E-02 Eh
 * total energy  :   -82.2954817 Eh     change       -0.3284639E-02 Eh
 * total energy  :   -82.2956692 Eh     change       -0.1875072E-03 Eh
 * total energy  :   -82.2960011 Eh     change       -0.3318230E-03 Eh
 * total energy  :   -82.2961920 Eh     change       -0.1908868E-03 Eh
 * total energy  :   -82.2963123 Eh     change       -0.5016376E-04 Eh
 * total energy  :   -82.2963539 Eh     change       -0.4162206E-04 Eh
 * total energy  :   -82.2963839 Eh     change       -0.2998795E-04 Eh
 * total energy  :   -82.2964039 Eh     change       -0.1999030E-04 Eh
 * total energy  :   -82.2964167 Eh     change       -0.1276088E-04 Eh
 * total energy  :   -82.2964287 Eh     change       -0.1206118E-04 Eh
 * total energy  :   -82.2964350 Eh     change       -0.6216269E-05 Eh
 * total energy  :   -82.2964437 Eh     change       -0.8713855E-05 Eh
 * total energy  :   -82.2964471 Eh     change       -0.3428986E-05 Eh
   *** GEOMETRY OPTIMIZATION CONVERGED AFTER 20 ITERATIONS ***

 final structure:
================
60
 xtb: 6.5.0 (homebrew)
C            3.52198635923019      -37.71426905718400       15.89108149403228
C            3.75047151585384      -38.14138039454325       17.33907097680935
O            3.27418450301246      -37.12204992952653       18.21726017972334
C            2.92425040135933      -39.40168616852458       17.62690303510037
C            5.25769818869816      -38.29382025665704       17.75692538701898
C            5.77533491283445      -39.72987036469946       17.79260757043247
C            6.20105992062337      -37.43870721387947       16.90141092877858
O            5.28461531316544      -37.74585801025948       19.07465176633257
B            4.15390976857150      -36.99799026806903       19.26277344992357
C            3.88019812882380      -36.15075045620772       20.52852754889933
C            4.88782091558645      -36.05043870347044       21.53938226326392
C            4.89995323555721      -35.29031134750092       22.64671023369156
H            5.77706264803571      -35.31289596789576       23.27794323041271
C            3.84456058520484      -34.27439700558454       23.02058399087723
H            4.08152168720628      -33.86162611284072       24.00325929181802
C            2.46271952540627      -34.87954715359559       23.10312945064580
B            1.72468989181890      -34.87084268427460       24.47787416904285
O            2.25448947473124      -34.36814875927737       25.63417869605991
C            1.39240750325002      -34.70832011376485       26.71941238163558
C            1.28749278366389      -33.52689565627081       27.68088679915889
C            2.04098374707617      -35.89318284730069       27.44679736521179
C            0.05103714595854      -35.09775471571250       25.99874939799353
C           -0.93896463656660      -33.92954422976231       25.90624728885852
C           -0.66602440041625      -36.31222149444211       26.58441827321119
O            0.47413993199893      -35.39079512524688       24.66787958430218
C            1.89069043945957      -35.46110536768358       22.04623326127331
C            2.46941806060166      -35.59576891173246       20.69419203602017
H            1.78171850862153      -36.09917549186179       20.01789191215290
C            3.13363677987347      -34.43260873124462       20.02610104618673
C            3.72142051305237      -33.31701924214601       20.67400471935899
C            3.99019147106092      -33.18376795224358       21.98636821069320
H            4.46757865560354      -32.27438019963844       22.32340593026468
H            2.45217063067238      -37.65981081018128       15.70471041150789
H            3.96075517757604      -38.44028075728858       15.21206396195918
H            3.94707183430462      -36.73457661781195       15.69821928950619
H            1.87265313145855      -39.16790568353079       17.47667849969194
H            3.05578746118649      -39.70884116410703       18.66145622266817
H            3.20349419762854      -40.21443506656144       16.96309215732188
H            5.67914556793125      -40.19007817437242       16.81286296090588
H            5.23791489434470      -40.32205732106615       18.52610143483849
H            6.82533028202070      -39.71812845047493       18.07420978076448
H            6.26856932966422      -37.82103975175173       15.88738686611819
H            7.18947602545391      -37.45789235620520       17.35473746015640
H            5.86044049861875      -36.40630987468841       16.88487707896758
H            5.75285253259824      -36.67157338906213       21.33630076429683
H            2.26002628181165      -33.35389550167019       28.13503516713660
H            0.56739779682949      -33.74484181727106       28.46509072742522
H            0.99332324444058      -32.62145720731326       27.16014737863470
H            3.03660668337109      -35.59784834289348       27.76989439072503
H            2.14488267524087      -36.73707667315774       26.76932004841923
H            1.45984985254041      -36.18711115534548       28.31573380099247
H           -1.33808223744842      -33.67458194256458       26.88342592594095
H           -1.75837466924223      -34.22400624000779       25.25457225873657
H           -0.45639338697447      -33.06071505118468       25.46586857605475
H           -0.91350124924865      -36.13582696189874       27.62773145193053
H           -0.05612277979224      -37.20580715816480       26.50151644176639
H           -1.58499739448329      -36.47944535090009       26.02818631919039
H            0.90775206184975      -35.89419550446951       22.17703269672598
H            3.06089523745438      -34.41506721544932       18.95077298944986
H            3.98258284123537      -32.49505452756580       20.01587306898331

          :  Hamiltonian                  GFN2-xTB          :
         :: total energy             -82.296447107096 Eh    ::
         :: gradient norm              0.000771507806 Eh/a0 ::
         :: HOMO-LUMO gap              2.524287711457 eV    ::
         :: SCC energy               -83.372738685860 Eh    ::
         :: -> dispersion             -0.062018749440 Eh    ::
         :: repulsion energy           1.075421657181 Eh    ::

    * Orbital Energies and Occupations

         #    Occupation            Energy/Eh            Energy/eV
      -------------------------------------------------------------
         1        2.0000           -0.6893642             -18.7586
       ...           ...                  ...                  ...
        63        2.0000           -0.4343615             -11.8196
        64        2.0000           -0.4325063             -11.7691
        65        2.0000           -0.4231919             -11.5156
        66        2.0000           -0.4222237             -11.4893
        67        2.0000           -0.4186467             -11.3920
        68        2.0000           -0.4165367             -11.3345
        69        2.0000           -0.4018812             -10.9357
        70        2.0000           -0.3983120             -10.8386
        71        2.0000           -0.3965783             -10.7914
        72        2.0000           -0.3938663             -10.7176
        73        2.0000           -0.3912345             -10.6460
        74        2.0000           -0.3609711              -9.8225
        75        2.0000           -0.3352932              -9.1238 (HOMO)
        76                         -0.2425274              -6.5995 (LUMO)
        77                         -0.2178882              -5.9290
        78                         -0.1826213              -4.9694
        79                         -0.1428192              -3.8863
        80                         -0.0958072              -2.6070
        81                         -0.0722738              -1.9667
        82                          0.0090481               0.2462
        83                          0.0103481               0.2816
        84                          0.0274112               0.7459
        85                          0.0298345               0.8118
        86                          0.0559612               1.5228
       ...                                ...                  ...
       144                          0.6767816              18.4162
      -------------------------------------------------------------
                  HL-Gap            0.0927659 Eh            2.5243 eV

     #   Z          covCN         q      C6AA      α(0)
     1   6 C        3.755    -0.117    22.790     6.807
     2   6 C        3.859     0.130    18.437     6.107
     3   8 O        1.638    -0.381    20.485     6.109
     4   6 C        3.755    -0.116    22.777     6.805
     5   6 C        3.860     0.130    18.441     6.107
     6   6 C        3.755    -0.117    22.803     6.809
     7   6 C        3.755    -0.115    22.765     6.803
     8   8 O        1.638    -0.374    20.366     6.092
     9   5 B        2.658     0.434    15.546     6.639
    10   6 C        3.475    -0.071    24.002     7.336
    11   6 C        2.890    -0.040    29.003     8.830
    12   6 C        2.909    -0.039    28.957     8.824
    13   1 H        0.926     0.025     2.657     2.549
    14   6 C        3.863    -0.016    20.822     6.489
    15   1 H        0.924     0.044     2.398     2.422
    16   6 C        2.866    -0.080    30.003     8.979
    17   5 B        2.662     0.432    15.557     6.639
    18   8 O        1.638    -0.370    20.278     6.079
    19   6 C        3.860     0.129    18.456     6.110
    20   6 C        3.755    -0.117    22.797     6.808
    21   6 C        3.755    -0.116    22.777     6.805
    22   6 C        3.860     0.129    18.454     6.109
    23   6 C        3.755    -0.116    22.782     6.806
    24   6 C        3.755    -0.117    22.804     6.809
    25   8 O        1.638    -0.372    20.320     6.085
    26   6 C        2.896    -0.029    28.718     8.786
    27   6 C        3.861    -0.004    20.611     6.456
    28   1 H        0.925     0.047     2.363     2.404
    29   6 C        3.503    -0.016    22.456     7.025
    30   6 C        2.888    -0.037    28.930     8.818
    31   6 C        2.910    -0.034    28.838     8.806
    32   1 H        0.926     0.027     2.634     2.538
    33   1 H        0.925     0.054     2.270     2.356
    34   1 H        0.925     0.040     2.455     2.450
    35   1 H        0.925     0.051     2.306     2.375
    36   1 H        0.925     0.052     2.300     2.372
    37   1 H        0.925     0.044     2.402     2.424
    38   1 H        0.925     0.042     2.417     2.431
    39   1 H        0.925     0.040     2.453     2.449
    40   1 H        0.925     0.052     2.291     2.367
    41   1 H        0.925     0.054     2.265     2.353
    42   1 H        0.925     0.042     2.417     2.431
    43   1 H        0.925     0.052     2.293     2.368
    44   1 H        0.925     0.043     2.415     2.430
    45   1 H        0.925     0.034     2.524     2.484
    46   1 H        0.925     0.054     2.267     2.355
    47   1 H        0.925     0.039     2.456     2.451
    48   1 H        0.925     0.052     2.296     2.370
    49   1 H        0.925     0.052     2.293     2.368
    50   1 H        0.925     0.044     2.400     2.423
    51   1 H        0.925     0.042     2.420     2.433
    52   1 H        0.925     0.043     2.415     2.430
    53   1 H        0.925     0.052     2.293     2.368
    54   1 H        0.925     0.044     2.401     2.423
    55   1 H        0.925     0.040     2.452     2.449
    56   1 H        0.925     0.052     2.294     2.369
    57   1 H        0.925     0.054     2.268     2.355
    58   1 H        0.925     0.038     2.481     2.463
    59   1 H        0.926     0.038     2.476     2.461
    60   1 H        0.925     0.025     2.652     2.547

Wiberg/Mayer (AO) data.
largest (>0.10) Wiberg bond orders for each atom

     #   Z sym  total        # sym  WBO       # sym  WBO       # sym  WBO
 ---------------------------------------------------------------------------
     1   6 C    3.994 --     2 C    0.997    34 H    0.985    33 H    0.983
                            35 H    0.982
     2   6 C    3.943 --     1 C    0.997     4 C    0.991     3 O    0.953
                             5 C    0.937
     3   8 O    2.216 --     9 B    1.112     2 C    0.953
     4   6 C    3.994 --     2 C    0.991    38 H    0.984    37 H    0.984
                            36 H    0.983
     5   6 C    3.942 --     6 C    0.997     7 C    0.991     8 O    0.952
                             2 C    0.937
     6   6 C    3.994 --     5 C    0.997    39 H    0.985    41 H    0.983
                            40 H    0.982
     7   6 C    3.994 --     5 C    0.991    42 H    0.984    44 H    0.984
                            43 H    0.983
     8   8 O    2.225 --     9 B    1.122     5 C    0.952
     9   5 B    3.388 --     8 O    1.122     3 O    1.112    10 C    1.025
    10   6 C    3.915 --    11 C    1.201     9 B    1.025    27 C    0.907
                            29 C    0.548    31 C    0.110
    11   6 C    3.991 --    12 C    1.742    10 C    1.201    45 H    0.960
    12   6 C    3.982 --    11 C    1.742    14 C    0.976    13 H    0.970
    13   1 H    0.999 --    12 C    0.970
    14   6 C    3.995 --    16 C    0.984    31 C    0.982    12 C    0.976
                            15 H    0.972
    15   1 H    0.998 --    14 C    0.972
    16   6 C    3.976 --    26 C    1.835    17 B    0.999    14 C    0.984
    17   5 B    3.375 --    18 O    1.130    25 O    1.129    16 C    0.999
    18   8 O    2.235 --    17 B    1.130    19 C    0.953
    19   6 C    3.943 --    20 C    0.997    21 C    0.991    18 O    0.953
                            22 C    0.937
    20   6 C    3.994 --    19 C    0.997    47 H    0.984    46 H    0.983
                            48 H    0.982
    21   6 C    3.994 --    19 C    0.991    51 H    0.984    50 H    0.984
                            49 H    0.983
    22   6 C    3.943 --    24 C    0.996    23 C    0.990    25 O    0.953
                            19 C    0.937
    23   6 C    3.995 --    22 C    0.990    52 H    0.984    54 H    0.984
                            53 H    0.983
    24   6 C    3.994 --    22 C    0.996    55 H    0.985    57 H    0.983
                            56 H    0.982
    25   8 O    2.233 --    17 B    1.129    22 C    0.953
    26   6 C    3.988 --    16 C    1.835    27 C    1.040    58 H    0.965
    27   6 C    3.982 --    26 C    1.040    28 H    0.967    29 C    0.962
                            10 C    0.907
    28   1 H    0.998 --    27 C    0.967
    29   6 C    3.936 --    30 C    1.235    59 H    0.974    27 C    0.962
                            10 C    0.548
    30   6 C    3.991 --    31 C    1.715    29 C    1.235    60 H    0.962
    31   6 C    3.973 --    30 C    1.715    14 C    0.982    32 H    0.971
                            10 C    0.110
    32   1 H    0.999 --    31 C    0.971
    33   1 H    0.997 --     1 C    0.983
    34   1 H    0.998 --     1 C    0.985
    35   1 H    0.997 --     1 C    0.982
    36   1 H    0.997 --     4 C    0.983
    37   1 H    0.998 --     4 C    0.984
    38   1 H    0.998 --     4 C    0.984
    39   1 H    0.998 --     6 C    0.985
    40   1 H    0.997 --     6 C    0.982
    41   1 H    0.997 --     6 C    0.983
    42   1 H    0.998 --     7 C    0.984
    43   1 H    0.997 --     7 C    0.983
    44   1 H    0.998 --     7 C    0.984
    45   1 H    0.999 --    11 C    0.960
    46   1 H    0.997 --    20 C    0.983
    47   1 H    0.998 --    20 C    0.984
    48   1 H    0.997 --    20 C    0.982
    49   1 H    0.997 --    21 C    0.983
    50   1 H    0.998 --    21 C    0.984
    51   1 H    0.998 --    21 C    0.984
    52   1 H    0.998 --    23 C    0.984
    53   1 H    0.997 --    23 C    0.983
    54   1 H    0.998 --    23 C    0.984
    55   1 H    0.998 --    24 C    0.985
    56   1 H    0.997 --    24 C    0.982
    57   1 H    0.997 --    24 C    0.983
    58   1 H    0.998 --    26 C    0.965
    59   1 H    0.998 --    29 C    0.974
    60   1 H    0.999 --    30 C    0.962
 ---------------------------------------------------------------------------

molecular dipole:
                 x           y           z       tot (Debye)
 q only:       -0.327      -0.393      -0.026
   full:       -0.245      -0.472      -0.142       1.399

           -------------------------------------------------
          | TOTAL ENERGY              -82.296447107096 Eh   |
          | GRADIENT NORM               0.000771507806 Eh/α |
          | HOMO-LUMO GAP               2.524287711457 eV   |
           -------------------------------------------------

 * finished run on 2022/07/09 at 18:33:36.842
