   * xtb version 6.5.0 (homebrew) compiled by 'nhattrup@GPGGRP-SHANNON.CHEME.CMU.EDU' on
          program call               : /opt/homebrew/bin/xtb bvl_bpin2_scan_9-5_xtb.xyz --chrg 0 --uhf 0 --opt --input xcontrol_bvl_bpin2_scan_9-5_xtb

   ID    Z sym.   atoms
    1    6 C      1, 2, 4-7, 10-12, 14, 16, 19-24, 26, 27, 29-31
    2    8 O      3, 8, 18, 25
    3    5 B      9, 17
    4    1 H      13, 15, 28, 32-60
constraining bond 12 31 to    2.5000000 Å, actual value:    2.3871247 Å
constraining bond 10 29 to    1.9444000 Å, actual value:    2.0513687 Å

          :  Hamiltonian                  GFN2-xTB          :
 * total energy  :   -82.1168967 Eh     change       -0.1330619E-08 Eh
 * total energy  :   -82.2476044 Eh     change       -0.1307077E+00 Eh
 * total energy  :   -82.2912510 Eh     change       -0.4364668E-01 Eh
 * total energy  :   -82.2918802 Eh     change       -0.6291087E-03 Eh
 * total energy  :   -82.2925471 Eh     change       -0.6669528E-03 Eh
 * total energy  :   -82.2927384 Eh     change       -0.1912659E-03 Eh
 * total energy  :   -82.2919043 Eh     change        0.8340895E-03 Eh
 * total energy  :   -82.2933320 Eh     change       -0.1427748E-02 Eh
 * total energy  :   -82.2934913 Eh     change       -0.1592868E-03 Eh
 * total energy  :   -82.2936619 Eh     change       -0.1705795E-03 Eh
 * total energy  :   -82.2940702 Eh     change       -0.4305259E-05 Eh
 * total energy  :   -82.2940723 Eh     change       -0.2146901E-05 Eh
 * total energy  :   -82.2940775 Eh     change       -0.5112158E-05 Eh
 * total energy  :   -82.2940862 Eh     change       -0.8791338E-05 Eh
 * total energy  :   -82.2940899 Eh     change       -0.3672456E-05 Eh
 * total energy  :   -82.2940970 Eh     change       -0.7096960E-05 Eh
 * total energy  :   -82.2941034 Eh     change       -0.6357603E-05 Eh
 * total energy  :   -82.2941088 Eh     change       -0.5404357E-05 Eh
 * total energy  :   -82.2941131 Eh     change       -0.4318759E-05 Eh
   *** GEOMETRY OPTIMIZATION CONVERGED AFTER 41 ITERATIONS ***

 final structure:
================
60
 xtb: 6.5.0 (homebrew)
C            3.63805127001772      -37.56202520084666       15.81859054034048
C            3.79362118379039      -38.08178840780810       17.24599298637529
O            3.30157060455959      -37.10782081356609       18.16552986483269
C            2.92808758793686      -39.33641395638627       17.42015248665446
C            5.27837917904432      -38.29583566387804       17.71461180565541
C            5.76072320516647      -39.74418620151127       17.68463105061238
C            6.27698349583536      -37.41809515440959       16.94920469635694
O            5.26295587376563      -37.82714269620681       19.06244891549700
B            4.14053269516676      -37.06656071439853       19.25119938507391
C            3.84524629225100      -36.27688011335813       20.54689356594401
C            4.83981614382229      -36.21910396011337       21.58050734718966
C            4.85423280107165      -35.46997361361932       22.69015819715074
H            5.69815796020031      -35.54095114734258       23.36034427172431
C            3.82982783099460      -34.39569002629696       23.02588733253082
H            4.08308956078544      -33.97645524051220       24.00204079142376
C            2.44652494817747      -34.99892577236236       23.13621371728651
B            1.71992231359908      -34.93514399462314       24.51541551178487
O            2.25320666074042      -34.34628562069371       25.62849301217569
C            1.40525137087949      -34.61515537237722       26.74362982035218
C            1.28742717169070      -33.36224301005205       27.60878826839824
C            2.08073820188026      -35.72570005882957       27.55842521382602
C            0.06548700554816      -35.08220252216601       26.06631357462289
C           -0.94740643645261      -33.94227477173984       25.89902792513824
C           -0.62138803825837      -36.26514189776970       26.74511558086521
O            0.48130438304255      -35.46203364005407       24.75473742613764
C            1.86702810860683      -35.59908573890420       22.09233443468601
C            2.42672605380292      -35.73987818617464       20.73299530368850
H            1.73314663640979      -36.25104570759832       20.06855872526544
C            3.07127568179857      -34.56843080804449       20.05550276057426
C            3.60911452991821      -33.41913558979144       20.69792245294569
C            3.88589716352912      -33.27232727812164       22.00286295771263
H            4.29023263812979      -32.33380378012079       22.35216033230091
H            2.57906002589816      -37.46939605451059       15.59041881688783
H            4.08957251267937      -38.25681831250714       15.11561815329297
H            4.09371602830283      -36.58377938069578       15.70402263177055
H            1.88984819675280      -39.06749499224416       17.23882226149657
H            3.00598376692631      -39.70772928518003       18.43900374481066
H            3.21880409397750      -40.11454615343161       16.72089227707652
H            5.69519429078168      -40.14132908022755       16.67524423702585
H            5.17933582211958      -40.36546601916143       18.35801814277935
H            6.79789293510492      -39.77597693041604       18.00888798795220
H            6.37801143580256      -37.74451623551988       15.91848929187193
H            7.24479165001654      -37.48923690953232       17.44026681535002
H            5.96286311438986      -36.37764901886831       16.97784605617886
H            5.67289565417819      -36.88864733878466       21.39788440531684
H            2.26044239817388      -33.13872577172994       28.03927970042854
H            0.57650998099285      -33.52732964409054       28.41391229540294
H            0.97592538415224      -32.50583432815053       27.01961239047881
H            3.07020744561653      -35.38409308086857       27.85379294883628
H            2.20207990620841      -36.61759377008905       26.94878833414396
H            1.50811323138325      -35.96311693103371       28.44993482063479
H           -1.34350527503651      -33.62381406607945       26.85861251610303
H           -1.76612244402137      -34.29768123604694       25.27761053328946
H           -0.48418381587959      -33.09942727242634       25.39229484785513
H           -0.86752847919257      -36.01748314852414       27.77420068021016
H            0.00815464301117      -37.14876697283658       26.72456571733997
H           -1.53906032257467      -36.49348993819621       26.20879395270707
H            0.88587000139108      -36.03186056782341       22.23862399784969
H            2.99375477643310      -34.55984362759260       18.98062676425353
H            3.78944896494833      -32.57754727373659       20.03710542353253

          :  Hamiltonian                  GFN2-xTB          :
         :: total energy             -82.294113097159 Eh    ::
         :: gradient norm              0.000549909205 Eh/a0 ::
         :: HOMO-LUMO gap              2.395988899117 eV    ::
         :: SCC energy               -83.368477291826 Eh    ::
         :: -> dispersion             -0.062025442521 Eh    ::
         :: repulsion energy           1.073430428501 Eh    ::

    * Orbital Energies and Occupations

         #    Occupation            Energy/Eh            Energy/eV
      -------------------------------------------------------------
         1        2.0000           -0.6890350             -18.7496
       ...           ...                  ...                  ...
        63        2.0000           -0.4349730             -11.8362
        64        2.0000           -0.4322905             -11.7632
        65        2.0000           -0.4227848             -11.5046
        66        2.0000           -0.4220187             -11.4837
        67        2.0000           -0.4186877             -11.3931
        68        2.0000           -0.4168239             -11.3424
        69        2.0000           -0.4013482             -10.9212
        70        2.0000           -0.3980480             -10.8314
        71        2.0000           -0.3966428             -10.7932
        72        2.0000           -0.3938527             -10.7173
        73        2.0000           -0.3919259             -10.6648
        74        2.0000           -0.3635828              -9.8936
        75        2.0000           -0.3320404              -9.0353 (HOMO)
        76                         -0.2439894              -6.6393 (LUMO)
        77                         -0.2186930              -5.9509
        78                         -0.1808633              -4.9215
        79                         -0.1445530              -3.9335
        80                         -0.0949564              -2.5839
        81                         -0.0756881              -2.0596
        82                          0.0094677               0.2576
        83                          0.0100621               0.2738
        84                          0.0275430               0.7495
        85                          0.0294493               0.8014
        86                          0.0562087               1.5295
       ...                                ...                  ...
       144                          0.6733477              18.3227
      -------------------------------------------------------------
                  HL-Gap            0.0880510 Eh            2.3960 eV

     #   Z          covCN         q      C6AA      α(0)
     1   6 C        3.755    -0.117    22.790     6.807
     2   6 C        3.858     0.130    18.436     6.106
     3   8 O        1.638    -0.381    20.501     6.112
     4   6 C        3.755    -0.116    22.776     6.805
     5   6 C        3.859     0.130    18.441     6.107
     6   6 C        3.755    -0.117    22.803     6.809
     7   6 C        3.755    -0.115    22.766     6.803
     8   8 O        1.638    -0.375    20.372     6.093
     9   5 B        2.657     0.433    15.553     6.641
    10   6 C        3.476    -0.071    23.991     7.331
    11   6 C        2.890    -0.039    28.956     8.822
    12   6 C        2.894    -0.041    29.022     8.833
    13   1 H        0.926     0.025     2.654     2.548
    14   6 C        3.861    -0.018    20.862     6.496
    15   1 H        0.924     0.044     2.398     2.422
    16   6 C        2.868    -0.079    29.974     8.974
    17   5 B        2.660     0.432    15.560     6.641
    18   8 O        1.638    -0.369    20.270     6.077
    19   6 C        3.859     0.129    18.458     6.110
    20   6 C        3.755    -0.117    22.797     6.808
    21   6 C        3.755    -0.116    22.775     6.805
    22   6 C        3.860     0.129    18.455     6.109
    23   6 C        3.755    -0.116    22.782     6.806
    24   6 C        3.755    -0.117    22.803     6.809
    25   8 O        1.638    -0.372    20.316     6.084
    26   6 C        2.896    -0.029    28.730     8.788
    27   6 C        3.860    -0.002    20.575     6.451
    28   1 H        0.925     0.046     2.377     2.411
    29   6 C        3.504    -0.017    22.463     7.023
    30   6 C        2.888    -0.035    28.871     8.809
    31   6 C        2.894    -0.036    28.901     8.814
    32   1 H        0.926     0.027     2.625     2.533
    33   1 H        0.925     0.054     2.273     2.358
    34   1 H        0.925     0.039     2.456     2.451
    35   1 H        0.925     0.051     2.308     2.376
    36   1 H        0.925     0.051     2.302     2.373
    37   1 H        0.925     0.043     2.403     2.424
    38   1 H        0.925     0.042     2.419     2.432
    39   1 H        0.925     0.040     2.454     2.450
    40   1 H        0.925     0.052     2.293     2.368
    41   1 H        0.925     0.054     2.266     2.354
    42   1 H        0.925     0.042     2.418     2.432
    43   1 H        0.925     0.052     2.293     2.368
    44   1 H        0.925     0.043     2.415     2.430
    45   1 H        0.925     0.036     2.509     2.477
    46   1 H        0.925     0.054     2.267     2.355
    47   1 H        0.925     0.039     2.456     2.451
    48   1 H        0.925     0.052     2.298     2.370
    49   1 H        0.925     0.052     2.293     2.368
    50   1 H        0.925     0.044     2.400     2.423
    51   1 H        0.925     0.042     2.420     2.433
    52   1 H        0.925     0.043     2.414     2.430
    53   1 H        0.925     0.052     2.293     2.368
    54   1 H        0.925     0.044     2.401     2.423
    55   1 H        0.925     0.040     2.451     2.448
    56   1 H        0.925     0.052     2.294     2.369
    57   1 H        0.925     0.054     2.267     2.354
    58   1 H        0.925     0.037     2.490     2.468
    59   1 H        0.926     0.041     2.441     2.443
    60   1 H        0.925     0.027     2.637     2.539

Wiberg/Mayer (AO) data.
largest (>0.10) Wiberg bond orders for each atom

     #   Z sym  total        # sym  WBO       # sym  WBO       # sym  WBO
 ---------------------------------------------------------------------------
     1   6 C    3.994 --     2 C    0.997    34 H    0.985    33 H    0.983
                            35 H    0.982
     2   6 C    3.943 --     1 C    0.997     4 C    0.991     3 O    0.954
                             5 C    0.937
     3   8 O    2.214 --     9 B    1.110     2 C    0.954
     4   6 C    3.994 --     2 C    0.991    38 H    0.984    37 H    0.984
                            36 H    0.983
     5   6 C    3.942 --     6 C    0.997     7 C    0.991     8 O    0.953
                             2 C    0.937
     6   6 C    3.994 --     5 C    0.997    39 H    0.985    41 H    0.983
                            40 H    0.982
     7   6 C    3.994 --     5 C    0.991    42 H    0.984    44 H    0.984
                            43 H    0.983
     8   8 O    2.224 --     9 B    1.120     5 C    0.953
     9   5 B    3.389 --     8 O    1.120     3 O    1.110    10 C    1.028
    10   6 C    3.910 --    11 C    1.177     9 B    1.028    27 C    0.903
                            29 C    0.571    31 C    0.105
    11   6 C    3.991 --    12 C    1.774    10 C    1.177    45 H    0.958
    12   6 C    3.985 --    11 C    1.774    14 C    0.978    13 H    0.970
    13   1 H    0.999 --    12 C    0.970
    14   6 C    3.995 --    31 C    0.983    16 C    0.981    12 C    0.978
                            15 H    0.973
    15   1 H    0.998 --    14 C    0.973
    16   6 C    3.975 --    26 C    1.830    17 B    0.998    14 C    0.981
    17   5 B    3.375 --    18 O    1.130    25 O    1.130    16 C    0.998
    18   8 O    2.236 --    17 B    1.130    19 C    0.953
    19   6 C    3.943 --    20 C    0.997    21 C    0.991    18 O    0.953
                            22 C    0.936
    20   6 C    3.994 --    19 C    0.997    47 H    0.985    46 H    0.983
                            48 H    0.982
    21   6 C    3.994 --    19 C    0.991    51 H    0.984    50 H    0.984
                            49 H    0.983
    22   6 C    3.942 --    24 C    0.996    23 C    0.990    25 O    0.953
                            19 C    0.936
    23   6 C    3.995 --    22 C    0.990    52 H    0.984    54 H    0.984
                            53 H    0.983
    24   6 C    3.994 --    22 C    0.996    55 H    0.985    57 H    0.983
                            56 H    0.982
    25   8 O    2.234 --    17 B    1.130    22 C    0.953
    26   6 C    3.988 --    16 C    1.830    27 C    1.045    58 H    0.966
    27   6 C    3.982 --    26 C    1.045    28 H    0.967    29 C    0.960
                            10 C    0.903
    28   1 H    0.998 --    27 C    0.967
    29   6 C    3.933 --    30 C    1.212    59 H    0.974    27 C    0.960
                            10 C    0.571
    30   6 C    3.991 --    31 C    1.746    29 C    1.212    60 H    0.961
    31   6 C    3.976 --    30 C    1.746    14 C    0.983    32 H    0.971
                            10 C    0.105
    32   1 H    0.999 --    31 C    0.971
    33   1 H    0.997 --     1 C    0.983
    34   1 H    0.998 --     1 C    0.985
    35   1 H    0.997 --     1 C    0.982
    36   1 H    0.997 --     4 C    0.983
    37   1 H    0.998 --     4 C    0.984
    38   1 H    0.998 --     4 C    0.984
    39   1 H    0.998 --     6 C    0.985
    40   1 H    0.997 --     6 C    0.982
    41   1 H    0.997 --     6 C    0.983
    42   1 H    0.998 --     7 C    0.984
    43   1 H    0.997 --     7 C    0.983
    44   1 H    0.998 --     7 C    0.984
    45   1 H    0.999 --    11 C    0.958
    46   1 H    0.997 --    20 C    0.983
    47   1 H    0.998 --    20 C    0.985
    48   1 H    0.997 --    20 C    0.982
    49   1 H    0.997 --    21 C    0.983
    50   1 H    0.998 --    21 C    0.984
    51   1 H    0.998 --    21 C    0.984
    52   1 H    0.998 --    23 C    0.984
    53   1 H    0.997 --    23 C    0.983
    54   1 H    0.998 --    23 C    0.984
    55   1 H    0.998 --    24 C    0.985
    56   1 H    0.997 --    24 C    0.982
    57   1 H    0.997 --    24 C    0.983
    58   1 H    0.998 --    26 C    0.966
    59   1 H    0.998 --    29 C    0.974
    60   1 H    0.999 --    30 C    0.961
 ---------------------------------------------------------------------------

molecular dipole:
                 x           y           z       tot (Debye)
 q only:       -0.322      -0.309      -0.037
   full:       -0.260      -0.370      -0.148       1.211

           -------------------------------------------------
          | TOTAL ENERGY              -82.294113097159 Eh   |
          | GRADIENT NORM               0.000549909205 Eh/α |
          | HOMO-LUMO GAP               2.395988899117 eV   |
           -------------------------------------------------

 * finished run on 2022/07/09 at 18:33:40.209
