   * xtb version 6.5.0 (homebrew) compiled by 'nhattrup@GPGGRP-SHANNON.CHEME.CMU.EDU' on
          program call               : /opt/homebrew/bin/xtb bvl_bpin2_scan_4-7_xtb.xyz --chrg 0 --uhf 0 --opt --input xcontrol_bvl_bpin2_scan_4-7_xtb

   ID    Z sym.   atoms
    1    6 C      1, 2, 4-7, 10-12, 14, 16, 19-24, 26, 27, 29-31
    2    8 O      3, 8, 18, 25
    3    5 B      9, 17
    4    1 H      13, 15, 28, 32-60
constraining bond 12 31 to    1.9444000 Å, actual value:    1.8331401 Å
constraining bond 10 29 to    1.7222000 Å, actual value:    1.8332123 Å

          :  Hamiltonian                  GFN2-xTB          :
 * total energy  :   -82.1229682 Eh     change       -0.7157013E-09 Eh
 * total energy  :   -82.2598180 Eh     change       -0.1368498E+00 Eh
 * total energy  :   -82.3007247 Eh     change       -0.4090675E-01 Eh
 * total energy  :   -82.3015546 Eh     change       -0.8298845E-03 Eh
 * total energy  :   -82.3014641 Eh     change        0.9044240E-04 Eh
 * total energy  :   -82.2985879 Eh     change        0.2876270E-02 Eh
 * total energy  :   -82.3022443 Eh     change       -0.3656385E-02 Eh
 * total energy  :   -82.3023814 Eh     change       -0.1371445E-03 Eh
 * total energy  :   -82.3024471 Eh     change       -0.6573365E-04 Eh
 * total energy  :   -82.3025426 Eh     change       -0.9549045E-04 Eh
 * total energy  :   -82.3026676 Eh     change       -0.8922809E-05 Eh
 * total energy  :   -82.3026750 Eh     change       -0.7448395E-05 Eh
 * total energy  :   -82.3026804 Eh     change       -0.5342335E-05 Eh
 * total energy  :   -82.3026895 Eh     change       -0.9119056E-05 Eh
 * total energy  :   -82.3026944 Eh     change       -0.4965596E-05 Eh
 * total energy  :   -82.3026997 Eh     change       -0.5289554E-05 Eh
 * total energy  :   -82.3026965 Eh     change        0.3261109E-05 Eh
 * total energy  :   -82.3027012 Eh     change       -0.4700620E-05 Eh
 * total energy  :   -82.3027049 Eh     change       -0.3734809E-05 Eh
   *** GEOMETRY OPTIMIZATION CONVERGED AFTER 30 ITERATIONS ***

 final structure:
================
60
 xtb: 6.5.0 (homebrew)
C            3.47802848048906      -37.74120675003533       15.89413547889127
C            3.72709350979398      -38.12735428618232       17.35000252040679
O            3.26394834731236      -37.08339314371942       18.20677575442539
C            2.90147505139589      -39.37516520620360       17.68775884376619
C            5.24047426048818      -38.26941734510883       17.75032096956686
C            5.75121256724429      -39.70547321306736       17.83773784156660
C            6.17605866242059      -37.45721637707681       16.84636027970638
O            5.28937134943618      -37.66818467362097       19.04542431615935
B            4.15939079646071      -36.92561396377662       19.22957961179415
C            3.90151230566140      -36.00770401333479       20.46630527325532
C            4.93216969360724      -35.91361399301960       21.45054056943624
C            4.95325639327092      -35.08456104205234       22.52909548112350
H            5.88184013439235      -35.01909111098701       23.08351727193619
C            3.81508736088656      -34.30647440454292       23.09393700062257
H            4.04540677188804      -33.91636678482457       24.08358861260911
C            2.44666920773231      -34.91650856957469       23.12167719007435
B            1.69534028429194      -34.91479327571854       24.48776231128392
O            2.20549381414756      -34.37397528535549       25.63656436248154
C            1.34534948563026      -34.70977769268017       26.72388705253168
C            1.20195998939018      -33.50588082752743       27.65218362497911
C            2.02270984907920      -35.85502608967215       27.48753959168664
C            0.02033586942294      -35.15476991675288       26.00442954602890
C           -1.00217921813140      -34.01788674277135       25.88101397973891
C           -0.66337343865388      -36.37729438482594       26.61276803214539
O            0.45866210484650      -35.46435453899542       24.68203547137425
C            1.88671812042974      -35.47544126136373       22.04757125991796
C            2.46325900029504      -35.58071689944258       20.69809279265073
H            1.78701315951380      -36.06852232339633       20.00274495607150
C            3.23505795382424      -34.47553063583925       20.05573412714654
C            3.85252191009873      -33.38041522314056       20.71032154457944
C            4.21613812158953      -33.35529653810047       22.02341330433346
H            4.82390124472180      -32.52043986635462       22.35127403705019
H            2.40579831921381      -37.68137003647510       15.72450942084587
H            3.89768707206943      -38.49210097802955       15.23028421349627
H            3.90938381681953      -36.77243157416561       15.66404260193297
H            1.84905126633211      -39.14243016828354       17.54178567631723
H            3.04338770565929      -39.64795293492778       18.73055561020572
H            3.17081566698675      -40.21007176979794       17.04810774981622
H            5.63530799569167      -40.20444380414867       16.87942965009536
H            5.22345109999053      -40.26327218764748       18.60435877311669
H            6.80591282845924      -39.68827201756665       18.10058034762158
H            6.22305512459786      -37.88186135735451       15.84810276127177
H            7.17195544184052      -37.46730737225410       17.28318997608604
H            5.84449442674621      -36.42329564044804       16.79223783796766
H            5.85951185191028      -36.39547875964406       21.16872780179390
H            2.16667563956019      -33.29517126304583       28.10717487306289
H            0.48244970412173      -33.72097230875701       28.43759675253820
H            0.88854773860691      -32.62292231669026       27.10473116175472
H            3.00508638078160      -35.51965108348925       27.81233566431903
H            2.16064544824882      -36.71208375055254       26.83310727714736
H            1.44235806436439      -36.14498422784291       28.35822389355397
H           -1.41416249537969      -33.75268812767114       26.85007365305376
H           -1.80898178509454      -34.34921377077245       25.23135988229399
H           -0.54122227755197      -33.14578758729377       25.42424130705025
H           -0.92558111565504      -36.18476658619736       27.64961359437134
H           -0.02458288732042      -37.25260598870200       26.55597958351965
H           -1.57150530391973      -36.58688083335913       26.05307223843094
H            0.90130211658088      -35.90767202139756       22.16046284808783
H            3.08666500423572      -34.37752845926438       18.98923783498275
H            4.26429000912818      -32.61632669515646       20.06252400592637

          :  Hamiltonian                  GFN2-xTB          :
         :: total energy             -82.302704899250 Eh    ::
         :: gradient norm              0.000848225121 Eh/a0 ::
         :: HOMO-LUMO gap              2.981426797486 eV    ::
         :: SCC energy               -83.381591944226 Eh    ::
         :: -> dispersion             -0.061216801698 Eh    ::
         :: repulsion energy           1.078195922717 Eh    ::

    * Orbital Energies and Occupations

         #    Occupation            Energy/Eh            Energy/eV
      -------------------------------------------------------------
         1        2.0000           -0.6918831             -18.8271
       ...           ...                  ...                  ...
        63        2.0000           -0.4357026             -11.8561
        64        2.0000           -0.4344681             -11.8225
        65        2.0000           -0.4298073             -11.6957
        66        2.0000           -0.4229939             -11.5103
        67        2.0000           -0.4189143             -11.3992
        68        2.0000           -0.4138263             -11.2608
        69        2.0000           -0.4063530             -11.0574
        70        2.0000           -0.4003974             -10.8954
        71        2.0000           -0.3973338             -10.8120
        72        2.0000           -0.3952680             -10.7558
        73        2.0000           -0.3811318             -10.3711
        74        2.0000           -0.3612584              -9.8303
        75        2.0000           -0.3344365              -9.1005 (HOMO)
        76                         -0.2248710              -6.1191 (LUMO)
        77                         -0.2018947              -5.4938
        78                         -0.1693726              -4.6089
        79                         -0.1275786              -3.4716
        80                         -0.0957384              -2.6052
        81                         -0.0172322              -0.4689
        82                          0.0049266               0.1341
        83                          0.0104754               0.2850
        84                          0.0256170               0.6971
        85                          0.0298899               0.8133
        86                          0.0544873               1.4827
       ...                                ...                  ...
       144                          0.6946552              18.9025
      -------------------------------------------------------------
                  HL-Gap            0.1095654 Eh            2.9814 eV

     #   Z          covCN         q      C6AA      α(0)
     1   6 C        3.755    -0.117    22.799     6.808
     2   6 C        3.860     0.130    18.443     6.107
     3   8 O        1.638    -0.378    20.428     6.101
     4   6 C        3.755    -0.116    22.785     6.806
     5   6 C        3.860     0.129    18.449     6.108
     6   6 C        3.755    -0.118    22.814     6.810
     7   6 C        3.755    -0.116    22.777     6.805
     8   8 O        1.638    -0.371    20.303     6.082
     9   5 B        2.659     0.439    15.481     6.624
    10   6 C        3.775    -0.062    21.721     6.641
    11   6 C        2.891    -0.058    29.449     8.897
    12   6 C        3.488    -0.018    22.731     7.104
    13   1 H        0.925     0.026     2.645     2.543
    14   6 C        3.866    -0.016    20.826     6.489
    15   1 H        0.925     0.044     2.393     2.419
    16   6 C        2.864    -0.084    30.094     8.992
    17   5 B        2.662     0.432    15.558     6.639
    18   8 O        1.638    -0.372    20.325     6.086
    19   6 C        3.860     0.129    18.454     6.109
    20   6 C        3.755    -0.117    22.796     6.808
    21   6 C        3.755    -0.116    22.775     6.805
    22   6 C        3.860     0.129    18.454     6.109
    23   6 C        3.755    -0.116    22.782     6.806
    24   6 C        3.755    -0.117    22.803     6.809
    25   8 O        1.638    -0.372    20.315     6.084
    26   6 C        2.896    -0.026    28.658     8.777
    27   6 C        3.862    -0.013    20.772     6.481
    28   1 H        0.925     0.042     2.417     2.431
    29   6 C        3.803    -0.009    20.741     6.484
    30   6 C        2.888    -0.060    29.492     8.903
    31   6 C        3.490    -0.015    22.646     7.086
    32   1 H        0.925     0.026     2.637     2.540
    33   1 H        0.925     0.055     2.260     2.351
    34   1 H        0.925     0.040     2.445     2.445
    35   1 H        0.925     0.052     2.298     2.371
    36   1 H        0.925     0.052     2.289     2.366
    37   1 H        0.925     0.044     2.395     2.420
    38   1 H        0.925     0.043     2.409     2.427
    39   1 H        0.925     0.041     2.440     2.443
    40   1 H        0.925     0.053     2.284     2.363
    41   1 H        0.925     0.055     2.255     2.348
    42   1 H        0.925     0.043     2.405     2.425
    43   1 H        0.925     0.053     2.282     2.362
    44   1 H        0.925     0.043     2.404     2.425
    45   1 H        0.925     0.030     2.589     2.516
    46   1 H        0.925     0.054     2.271     2.357
    47   1 H        0.925     0.039     2.457     2.451
    48   1 H        0.925     0.052     2.296     2.370
    49   1 H        0.925     0.052     2.297     2.370
    50   1 H        0.925     0.044     2.401     2.423
    51   1 H        0.925     0.042     2.422     2.434
    52   1 H        0.925     0.042     2.417     2.431
    53   1 H        0.925     0.052     2.293     2.368
    54   1 H        0.925     0.044     2.398     2.422
    55   1 H        0.925     0.040     2.454     2.450
    56   1 H        0.925     0.052     2.296     2.369
    57   1 H        0.925     0.054     2.268     2.355
    58   1 H        0.925     0.038     2.482     2.464
    59   1 H        0.925     0.035     2.521     2.483
    60   1 H        0.925     0.019     2.747     2.592

Wiberg/Mayer (AO) data.
largest (>0.10) Wiberg bond orders for each atom

     #   Z sym  total        # sym  WBO       # sym  WBO       # sym  WBO
 ---------------------------------------------------------------------------
     1   6 C    3.994 --     2 C    0.997    34 H    0.984    33 H    0.982
                            35 H    0.982
     2   6 C    3.942 --     1 C    0.997     4 C    0.991     3 O    0.951
                             5 C    0.937
     3   8 O    2.224 --     9 B    1.124     2 C    0.951
     4   6 C    3.994 --     2 C    0.991    38 H    0.984    37 H    0.984
                            36 H    0.983
     5   6 C    3.941 --     6 C    0.997     7 C    0.991     8 O    0.950
                             2 C    0.937
     6   6 C    3.994 --     5 C    0.997    39 H    0.984    41 H    0.982
                            40 H    0.982
     7   6 C    3.995 --     5 C    0.991    42 H    0.984    44 H    0.984
                            43 H    0.983
     8   8 O    2.234 --     9 B    1.136     5 C    0.950
     9   5 B    3.378 --     8 O    1.136     3 O    1.124    10 C    1.001
    10   6 C    3.929 --    11 C    1.225     9 B    1.001    27 C    0.890
                            29 C    0.620
    11   6 C    3.984 --    12 C    1.602    10 C    1.225    45 H    0.963
                            30 C    0.100
    12   6 C    3.970 --    11 C    1.602    13 H    0.971    14 C    0.950
                            31 C    0.295
    13   1 H    0.999 --    12 C    0.971
    14   6 C    3.981 --    16 C    0.998    15 H    0.969    31 C    0.958
                            12 C    0.950
    15   1 H    0.998 --    14 C    0.969
    16   6 C    3.977 --    26 C    1.829    17 B    1.001    14 C    0.998
    17   5 B    3.376 --    25 O    1.129    18 O    1.126    16 C    1.001
    18   8 O    2.232 --    17 B    1.126    19 C    0.953
    19   6 C    3.943 --    20 C    0.997    21 C    0.991    18 O    0.953
                            22 C    0.936
    20   6 C    3.994 --    19 C    0.997    47 H    0.985    46 H    0.983
                            48 H    0.982
    21   6 C    3.994 --    19 C    0.991    51 H    0.984    50 H    0.984
                            49 H    0.983
    22   6 C    3.943 --    24 C    0.996    23 C    0.991    25 O    0.953
                            19 C    0.936
    23   6 C    3.995 --    22 C    0.991    52 H    0.984    54 H    0.984
                            53 H    0.983
    24   6 C    3.994 --    22 C    0.996    55 H    0.985    57 H    0.983
                            56 H    0.982
    25   8 O    2.233 --    17 B    1.129    22 C    0.953
    26   6 C    3.988 --    16 C    1.829    27 C    1.045    58 H    0.965
    27   6 C    3.965 --    26 C    1.045    28 H    0.969    29 C    0.937
                            10 C    0.890
    28   1 H    0.998 --    27 C    0.969
    29   6 C    3.948 --    30 C    1.247    59 H    0.973    27 C    0.937
                            10 C    0.620
    30   6 C    3.979 --    31 C    1.583    29 C    1.247    60 H    0.965
                            11 C    0.100
    31   6 C    3.964 --    30 C    1.583    32 H    0.971    14 C    0.958
                            12 C    0.295
    32   1 H    0.999 --    31 C    0.971
    33   1 H    0.997 --     1 C    0.982
    34   1 H    0.998 --     1 C    0.984
    35   1 H    0.997 --     1 C    0.982
    36   1 H    0.997 --     4 C    0.983
    37   1 H    0.998 --     4 C    0.984
    38   1 H    0.998 --     4 C    0.984
    39   1 H    0.998 --     6 C    0.984
    40   1 H    0.997 --     6 C    0.982
    41   1 H    0.997 --     6 C    0.982
    42   1 H    0.998 --     7 C    0.984
    43   1 H    0.997 --     7 C    0.983
    44   1 H    0.998 --     7 C    0.984
    45   1 H    0.999 --    11 C    0.963
    46   1 H    0.997 --    20 C    0.983
    47   1 H    0.998 --    20 C    0.985
    48   1 H    0.997 --    20 C    0.982
    49   1 H    0.997 --    21 C    0.983
    50   1 H    0.998 --    21 C    0.984
    51   1 H    0.998 --    21 C    0.984
    52   1 H    0.998 --    23 C    0.984
    53   1 H    0.997 --    23 C    0.983
    54   1 H    0.998 --    23 C    0.984
    55   1 H    0.998 --    24 C    0.985
    56   1 H    0.997 --    24 C    0.982
    57   1 H    0.997 --    24 C    0.983
    58   1 H    0.998 --    26 C    0.965
    59   1 H    0.998 --    29 C    0.973
    60   1 H    0.999 --    30 C    0.965
 ---------------------------------------------------------------------------

molecular dipole:
                 x           y           z       tot (Debye)
 q only:       -0.268      -0.508      -0.043
   full:       -0.173      -0.575      -0.122       1.557

           -------------------------------------------------
          | TOTAL ENERGY              -82.302704899250 Eh   |
          | GRADIENT NORM               0.000848225121 Eh/α |
          | HOMO-LUMO GAP               2.981426797486 eV   |
           -------------------------------------------------

 * finished run on 2022/07/09 at 18:33:31.877
