   * xtb version 6.5.0 (homebrew) compiled by 'nhattrup@GPGGRP-SHANNON.CHEME.CMU.EDU' on
          program call               : /opt/homebrew/bin/xtb bvl_bpin2_scan_1-3_xtb.xyz --chrg 0 --uhf 0 --opt --input xcontrol_bvl_bpin2_scan_1-3_xtb

   ID    Z sym.   atoms
    1    6 C      1, 2, 4-7, 10-12, 14, 16, 19-24, 26, 27, 29-31
    2    8 O      3, 8, 18, 25
    3    5 B      9, 17
    4    1 H      13, 15, 28, 32-60
constraining bond 12 31 to    1.6111000 Å, actual value:    1.5022288 Å
constraining bond 10 29 to    2.1667000 Å, actual value:    2.2802354 Å

          :  Hamiltonian                  GFN2-xTB          :
 * total energy  :   -82.1419342 Eh     change       -0.1637744E-08 Eh
 * total energy  :   -82.2625556 Eh     change       -0.1206214E+00 Eh
 * total energy  :   -82.3113894 Eh     change       -0.4883380E-01 Eh
 * total energy  :   -82.3120707 Eh     change       -0.6812528E-03 Eh
 * total energy  :   -82.3112495 Eh     change        0.8211436E-03 Eh
 * total energy  :   -82.3114754 Eh     change       -0.2258841E-03 Eh
 * total energy  :   -82.3128538 Eh     change       -0.1378421E-02 Eh
 * total energy  :   -82.3130612 Eh     change       -0.2073590E-03 Eh
 * total energy  :   -82.3132100 Eh     change       -0.1487887E-03 Eh
 * total energy  :   -82.3134505 Eh     change       -0.2405513E-03 Eh
 * total energy  :   -82.3141894 Eh     change       -0.1083690E-04 Eh
 * total energy  :   -82.3142033 Eh     change       -0.1394834E-04 Eh
 * total energy  :   -82.3142220 Eh     change       -0.1867420E-04 Eh
 * total energy  :   -82.3142427 Eh     change       -0.2066450E-04 Eh
 * total energy  :   -82.3142605 Eh     change       -0.1783045E-04 Eh
 * total energy  :   -82.3142747 Eh     change       -0.1423669E-04 Eh
 * total energy  :   -82.3142782 Eh     change       -0.3435137E-05 Eh
 * total energy  :   -82.3142871 Eh     change       -0.8953245E-05 Eh
 * total energy  :   -82.3142899 Eh     change       -0.2757205E-05 Eh
   *** GEOMETRY OPTIMIZATION CONVERGED AFTER 46 ITERATIONS ***

 final structure:
================
60
 xtb: 6.5.0 (homebrew)
C            3.35638808774328      -37.92796749285485       16.05029867970301
C            3.65148962421057      -38.22684361200898       17.51859319398664
O            3.22315469564957      -37.12939462499070       18.32216535969751
C            2.82835694771264      -39.44488574980303       17.95690981808607
C            5.17793878575576      -38.35685250095226       17.87531893473238
C            5.67606441710924      -39.78904055587137       18.05769928570191
C            6.08998493711342      -37.63270080587004       16.87690826190780
O            5.28274753754089      -37.65797033591369       19.11518954455688
B            4.16075272532476      -36.89618125050318       19.29071693131904
C            3.96361201744391      -35.88535943242505       20.46081324970760
C            4.98920182755047      -35.65909173143952       21.31203926734634
C            5.06004781726486      -34.67863570808303       22.36795676622629
H            6.00325133410085      -34.65008927185792       22.89820575935443
C            3.87702732483771      -34.11775737339327       23.12018660083909
H            4.11538395062059      -33.79522623049201       24.12789020135226
C            2.53296377486379      -34.73647945405423       23.05861303816602
B            1.75097782581859      -34.85989704392619       24.40489932767539
O            2.23820926475510      -34.42827846162796       25.60806372384044
C            1.35761060524353      -34.86393642436530       26.64311549950182
C            1.19293746918510      -33.75038742319857       27.67459283077910
C            2.02295098576109      -36.07362681337149       27.31168711060778
C            0.04828551407387      -35.24223935561529       25.85943001981592
C           -0.97586126791893      -34.10095118584694       25.82236844573050
C           -0.64210006967373      -36.51783389586377       26.33703137690616
O            0.51334312491309      -35.42587961925440       24.52265294298944
C            2.00101106268770      -35.20962316570538       21.92905980955482
C            2.62714549590678      -35.21080440088495       20.57493628828934
H            1.93757725399752      -35.65646306898075       19.85788523772926
C            3.14332623370006      -33.91909260243853       20.05268383244522
C            3.89226569119448      -33.03621832273726       20.72467907227698
C            4.44319171638226      -33.22701097821940       22.04992442893349
H            5.05328174506554      -32.40736963201745       22.40799677958220
H            2.27947191493005      -37.86874810490825       15.91303788261292
H            3.74810552494864      -38.72100749138139       15.41915146314332
H            3.78617702526556      -36.97839771491428       15.74848051057536
H            1.77355365876156      -39.21278721222286       17.82736642452623
H            2.99842717499972      -39.65388272068903       19.01005315979053
H            3.07323391126393      -40.31999858699116       17.36266467219258
H            5.52722568101728      -40.35894729654495       17.14459121318595
H            5.16572977676067      -40.27980111790370       18.87996467144123
H            6.73819180938434      -39.76461365705561       18.28838650867874
H            6.08934987880610      -38.12974119302152       15.91150634050267
H            7.10254156687191      -37.63129703179306       17.27395057845023
H            5.77468020284808      -36.59895321875639       16.76053580690342
H            5.91493590194075      -36.18097775657081       21.10447214406268
H            2.14867275963849      -33.57988450996989       28.16402770274303
H            0.46059680012003      -34.03803854927179       28.42404677321004
H            0.88570327741984      -32.82196378886138       27.20449046603801
H            2.99790113666442      -35.76869953082275       27.68522880398837
H            2.17582822504336      -36.86713406653847       26.58460565756368
H            1.42632414576550      -36.44238221615227       28.14052818822014
H           -1.40630243888778      -33.92681760673589       26.80391030435143
H           -1.76944887012419      -34.37274080259026       25.13025306638636
H           -0.50977014926435      -33.18977289941171       25.45614059509530
H           -0.92275764345679      -36.42506977784095       27.38268942687559
H            0.00027898260513      -37.38288144767707       26.20840760979430
H           -1.53978083410986      -36.67463758554096       25.74417913149144
H            1.01755818365189      -35.65524070015351       21.98834060827573
H            2.89144937766992      -33.69497980312426       19.02386541830706
H            4.24332456353290      -32.15346508798816       20.20445325225124

          :  Hamiltonian                  GFN2-xTB          :
         :: total energy             -82.314289891048 Eh    ::
         :: gradient norm              0.000943207926 Eh/a0 ::
         :: HOMO-LUMO gap              3.267708593357 eV    ::
         :: SCC energy               -83.396172593531 Eh    ::
         :: -> dispersion             -0.061551409801 Eh    ::
         :: repulsion energy           1.081094018396 Eh    ::

    * Orbital Energies and Occupations

         #    Occupation            Energy/Eh            Energy/eV
      -------------------------------------------------------------
         1        2.0000           -0.6877521             -18.7147
       ...           ...                  ...                  ...
        63        2.0000           -0.4368421             -11.8871
        64        2.0000           -0.4324799             -11.7684
        65        2.0000           -0.4288448             -11.6695
        66        2.0000           -0.4197527             -11.4221
        67        2.0000           -0.4194731             -11.4144
        68        2.0000           -0.4133925             -11.2490
        69        2.0000           -0.4070559             -11.0766
        70        2.0000           -0.3976575             -10.8208
        71        2.0000           -0.3966884             -10.7944
        72        2.0000           -0.3956230             -10.7654
        73        2.0000           -0.3847541             -10.4697
        74        2.0000           -0.3571473              -9.7185
        75        2.0000           -0.3432851              -9.3413 (HOMO)
        76                         -0.2231991              -6.0736 (LUMO)
        77                         -0.2114350              -5.7534
        78                         -0.1852794              -5.0417
        79                         -0.1027401              -2.7957
        80                         -0.0924688              -2.5162
        81                         -0.0049287              -0.1341
        82                          0.0088753               0.2415
        83                          0.0102044               0.2777
        84                          0.0286913               0.7807
        85                          0.0293822               0.7995
        86                          0.0572500               1.5579
       ...                                ...                  ...
       144                          0.6894483              18.7608
      -------------------------------------------------------------
                  HL-Gap            0.1200861 Eh            3.2677 eV

     #   Z          covCN         q      C6AA      α(0)
     1   6 C        3.755    -0.117    22.793     6.807
     2   6 C        3.858     0.129    18.454     6.109
     3   8 O        1.638    -0.372    20.325     6.086
     4   6 C        3.755    -0.116    22.774     6.805
     5   6 C        3.858     0.129    18.451     6.109
     6   6 C        3.755    -0.117    22.803     6.809
     7   6 C        3.755    -0.116    22.773     6.804
     8   8 O        1.638    -0.373    20.351     6.089
     9   5 B        2.659     0.432    15.561     6.641
    10   6 C        3.045    -0.079    29.923     8.972
    11   6 C        2.895    -0.039    28.974     8.825
    12   6 C        3.848    -0.014    20.798     6.487
    13   1 H        0.925     0.031     2.576     2.510
    14   6 C        3.864    -0.016    20.819     6.489
    15   1 H        0.925     0.043     2.411     2.428
    16   6 C        2.863    -0.084    30.103     8.993
    17   5 B        2.662     0.432    15.550     6.637
    18   8 O        1.638    -0.373    20.344     6.088
    19   6 C        3.860     0.129    18.454     6.109
    20   6 C        3.755    -0.117    22.800     6.808
    21   6 C        3.755    -0.116    22.779     6.805
    22   6 C        3.860     0.129    18.455     6.109
    23   6 C        3.755    -0.116    22.786     6.806
    24   6 C        3.755    -0.118    22.806     6.809
    25   8 O        1.638    -0.370    20.289     6.080
    26   6 C        2.898    -0.028    28.693     8.783
    27   6 C        3.866    -0.014    20.786     6.483
    28   1 H        0.925     0.044     2.391     2.418
    29   6 C        3.072    -0.026    28.586     8.767
    30   6 C        2.889    -0.048    29.187     8.857
    31   6 C        3.850    -0.012    20.757     6.480
    32   1 H        0.925     0.030     2.579     2.512
    33   1 H        0.925     0.054     2.268     2.355
    34   1 H        0.925     0.039     2.458     2.452
    35   1 H        0.925     0.051     2.303     2.373
    36   1 H        0.925     0.052     2.293     2.368
    37   1 H        0.925     0.044     2.402     2.424
    38   1 H        0.925     0.042     2.422     2.434
    39   1 H        0.925     0.040     2.451     2.448
    40   1 H        0.925     0.052     2.297     2.370
    41   1 H        0.925     0.054     2.269     2.356
    42   1 H        0.925     0.042     2.416     2.431
    43   1 H        0.925     0.052     2.296     2.370
    44   1 H        0.925     0.043     2.404     2.425
    45   1 H        0.925     0.034     2.527     2.486
    46   1 H        0.925     0.054     2.269     2.356
    47   1 H        0.925     0.040     2.451     2.448
    48   1 H        0.925     0.052     2.294     2.369
    49   1 H        0.925     0.052     2.296     2.369
    50   1 H        0.925     0.044     2.399     2.422
    51   1 H        0.925     0.043     2.416     2.431
    52   1 H        0.925     0.043     2.412     2.429
    53   1 H        0.925     0.053     2.287     2.365
    54   1 H        0.925     0.044     2.397     2.421
    55   1 H        0.925     0.040     2.449     2.447
    56   1 H        0.925     0.052     2.294     2.368
    57   1 H        0.925     0.055     2.262     2.352
    58   1 H        0.925     0.036     2.496     2.471
    59   1 H        0.925     0.025     2.652     2.547
    60   1 H        0.925     0.022     2.703     2.571

Wiberg/Mayer (AO) data.
largest (>0.10) Wiberg bond orders for each atom

     #   Z sym  total        # sym  WBO       # sym  WBO       # sym  WBO
 ---------------------------------------------------------------------------
     1   6 C    3.994 --     2 C    0.997    34 H    0.985    33 H    0.983
                            35 H    0.982
     2   6 C    3.943 --     1 C    0.997     4 C    0.991     3 O    0.954
                             5 C    0.936
     3   8 O    2.231 --     9 B    1.126     2 C    0.954
     4   6 C    3.994 --     2 C    0.991    38 H    0.984    37 H    0.984
                            36 H    0.983
     5   6 C    3.942 --     6 C    0.996     7 C    0.991     8 O    0.953
                             2 C    0.936
     6   6 C    3.994 --     5 C    0.996    39 H    0.985    41 H    0.983
                            40 H    0.982
     7   6 C    3.995 --     5 C    0.991    42 H    0.984    44 H    0.984
                            43 H    0.983
     8   8 O    2.230 --     9 B    1.127     5 C    0.953
     9   5 B    3.378 --     8 O    1.127     3 O    1.126    10 C    1.004
    10   6 C    3.969 --    11 C    1.707     9 B    1.004    27 C    0.949
                            29 C    0.109
    11   6 C    3.989 --    10 C    1.707    12 C    1.148    45 H    0.964
    12   6 C    3.947 --    11 C    1.148    13 H    0.973    14 C    0.910
                            31 C    0.781
    13   1 H    0.999 --    12 C    0.973
    14   6 C    3.955 --    16 C    1.034    15 H    0.969    31 C    0.927
                            12 C    0.910
    15   1 H    0.998 --    14 C    0.969
    16   6 C    3.978 --    26 C    1.827    14 C    1.034    17 B    0.997
    17   5 B    3.375 --    25 O    1.133    18 O    1.128    16 C    0.997
    18   8 O    2.232 --    17 B    1.128    19 C    0.952
    19   6 C    3.943 --    20 C    0.997    21 C    0.991    18 O    0.952
                            22 C    0.936
    20   6 C    3.994 --    19 C    0.997    47 H    0.984    46 H    0.983
                            48 H    0.982
    21   6 C    3.994 --    19 C    0.991    51 H    0.984    50 H    0.984
                            49 H    0.983
    22   6 C    3.942 --    24 C    0.996    23 C    0.991    25 O    0.953
                            19 C    0.936
    23   6 C    3.995 --    22 C    0.991    52 H    0.984    54 H    0.984
                            53 H    0.983
    24   6 C    3.994 --    22 C    0.996    55 H    0.984    57 H    0.983
                            56 H    0.982
    25   8 O    2.236 --    17 B    1.133    22 C    0.953
    26   6 C    3.987 --    16 C    1.827    27 C    1.006    58 H    0.967
    27   6 C    3.991 --    26 C    1.006    29 C    0.974    28 H    0.969
                            10 C    0.949
    28   1 H    0.998 --    27 C    0.969
    29   6 C    3.983 --    30 C    1.778    27 C    0.974    59 H    0.969
                            10 C    0.109
    30   6 C    3.988 --    29 C    1.778    31 C    1.126    60 H    0.966
    31   6 C    3.942 --    30 C    1.126    32 H    0.973    14 C    0.927
                            12 C    0.781
    32   1 H    0.999 --    31 C    0.973
    33   1 H    0.997 --     1 C    0.983
    34   1 H    0.998 --     1 C    0.985
    35   1 H    0.997 --     1 C    0.982
    36   1 H    0.997 --     4 C    0.983
    37   1 H    0.998 --     4 C    0.984
    38   1 H    0.998 --     4 C    0.984
    39   1 H    0.998 --     6 C    0.985
    40   1 H    0.997 --     6 C    0.982
    41   1 H    0.997 --     6 C    0.983
    42   1 H    0.998 --     7 C    0.984
    43   1 H    0.997 --     7 C    0.983
    44   1 H    0.998 --     7 C    0.984
    45   1 H    0.999 --    11 C    0.964
    46   1 H    0.997 --    20 C    0.983
    47   1 H    0.998 --    20 C    0.984
    48   1 H    0.997 --    20 C    0.982
    49   1 H    0.997 --    21 C    0.983
    50   1 H    0.998 --    21 C    0.984
    51   1 H    0.998 --    21 C    0.984
    52   1 H    0.998 --    23 C    0.984
    53   1 H    0.997 --    23 C    0.983
    54   1 H    0.998 --    23 C    0.984
    55   1 H    0.998 --    24 C    0.984
    56   1 H    0.997 --    24 C    0.982
    57   1 H    0.997 --    24 C    0.983
    58   1 H    0.999 --    26 C    0.967
    59   1 H    0.999 --    29 C    0.969
    60   1 H    0.999 --    30 C    0.966
 ---------------------------------------------------------------------------

molecular dipole:
                 x           y           z       tot (Debye)
 q only:       -0.227      -0.482       0.192
   full:       -0.140      -0.574       0.167       1.560

           -------------------------------------------------
          | TOTAL ENERGY              -82.314289891048 Eh   |
          | GRADIENT NORM               0.000943207926 Eh/α |
          | HOMO-LUMO GAP               3.267708593357 eV   |
           -------------------------------------------------

 * finished run on 2022/07/09 at 18:33:01.898
