   * xtb version 6.5.0 (homebrew) compiled by 'nhattrup@GPGGRP-SHANNON.CHEME.CMU.EDU' on
          program call               : /opt/homebrew/bin/xtb bvl_bpin2_scan_5-6_xtb.xyz --chrg 0 --uhf 0 --opt --input xcontrol_bvl_bpin2_scan_5-6_xtb

   ID    Z sym.   atoms
    1    6 C      1, 2, 4-7, 10-12, 14, 16, 19-24, 26, 27, 29-31
    2    8 O      3, 8, 18, 25
    3    5 B      9, 17
    4    1 H      13, 15, 28, 32-60
constraining bond 12 31 to    2.0556000 Å, actual value:    1.9438670 Å
constraining bond 10 29 to    1.8333000 Å, actual value:    1.9437011 Å

          :  Hamiltonian                  GFN2-xTB          :
 * total energy  :   -82.1219141 Eh     change       -0.9274999E-09 Eh
 * total energy  :   -82.2587711 Eh     change       -0.1368569E+00 Eh
 * total energy  :   -82.2998048 Eh     change       -0.4103370E-01 Eh
 * total energy  :   -82.3006235 Eh     change       -0.8187629E-03 Eh
 * total energy  :   -82.3004177 Eh     change        0.2058150E-03 Eh
 * total energy  :   -82.2989311 Eh     change        0.1486656E-02 Eh
 * total energy  :   -82.3014807 Eh     change       -0.2549635E-02 Eh
 * total energy  :   -82.3016004 Eh     change       -0.1196690E-03 Eh
 * total energy  :   -82.3017330 Eh     change       -0.1326937E-03 Eh
 * total energy  :   -82.3018604 Eh     change       -0.1273736E-03 Eh
 * total energy  :   -82.3019100 Eh     change       -0.1474424E-04 Eh
 * total energy  :   -82.3019229 Eh     change       -0.1286868E-04 Eh
 * total energy  :   -82.3019346 Eh     change       -0.1177929E-04 Eh
 * total energy  :   -82.3019447 Eh     change       -0.1008112E-04 Eh
 * total energy  :   -82.3019518 Eh     change       -0.7086570E-05 Eh
 * total energy  :   -82.3019573 Eh     change       -0.5502198E-05 Eh
 * total energy  :   -82.3019634 Eh     change       -0.6049044E-05 Eh
 * total energy  :   -82.3019666 Eh     change       -0.3229942E-05 Eh
 * total energy  :   -82.3019697 Eh     change       -0.3078005E-05 Eh
   *** GEOMETRY OPTIMIZATION CONVERGED AFTER 20 ITERATIONS ***

 final structure:
================
60
 xtb: 6.5.0 (homebrew)
C            3.47163056978112      -37.74095307081731       15.91536286774209
C            3.71850718619171      -38.14016690121359       17.36843061991636
O            3.25524154192862      -37.10206246861414       18.23163772219269
C            2.89126053410646      -39.39100980168513       17.69159089582566
C            5.23188229281608      -38.28744106566998       17.76907960707405
C            5.73834017922744      -39.72545944925383       17.85577856134610
C            6.17055704595977      -37.47731328033966       16.86628342269260
O            5.28428245550691      -37.68785378804483       19.06398500355111
B            4.15476884001003      -36.94284517300963       19.25211652078741
C            3.90077893323941      -36.04114455659801       20.49429133204656
C            4.93185615422900      -35.91237125422066       21.46524729190166
C            4.95475902897688      -35.10316258112167       22.55379125600126
H            5.88224917422702      -35.03643661292155       23.10805572698381
C            3.83351593653604      -34.26293238157388       23.07033834087565
H            4.06323933217279      -33.86661148760989       24.05898234258360
C            2.46105452072192      -34.86986617088265       23.11081075897683
B            1.71240160902645      -34.88112983659536       24.47893468339504
O            2.21908636688723      -34.36312154717726       25.63923247711336
C            1.35556448833121      -34.72113694865214       26.71752604785758
C            1.20590840640705      -33.53611473724046       27.66883041926951
C            2.03154140946649      -35.88009443488213       27.46148453513901
C            0.03322023195714      -35.15442985660294       25.98580471932039
C           -0.99354132060691      -34.01927425963475       25.88351812591990
C           -0.64783666788090      -36.39268185379468       26.56479080421834
O            0.47538672590791      -35.43460590384569       24.65858777344409
C            1.89662169519661      -35.42934338232910       22.03979671672247
C            2.48090963028912      -35.54260844387103       20.69048352330415
H            1.79857920297956      -36.03225114608615       20.00039765335475
C            3.20451754085127      -34.41002165112950       20.04149574340033
C            3.84928390075589      -33.33733406620253       20.69075015957504
C            4.18080261032340      -33.27745401142285       22.00754737909757
H            4.78580836092338      -32.43996375470932       22.33115426179706
H            2.39955311077329      -37.68068608529847       15.74454691021605
H            3.89325261576994      -38.48500733773496       15.24514334697315
H            3.90195306286505      -36.76933588133330       15.69530291279538
H            1.83930568903688      -39.15736422211271       17.54380331801346
H            3.02923901050421      -39.67483105003575       18.73186861234360
H            3.16298076506566      -40.21958352974668       17.04452682413161
H            5.62706134405150      -40.22315319364672       16.89622238172482
H            5.20509641026654      -40.28355810976875       18.61841286635418
H            6.79157450577568      -39.71128756792100       18.12472698274605
H            6.21359657999711      -37.89742741762345       15.86599895282153
H            7.16700703586516      -37.49495532225254       17.30167031363479
H            5.84484319490867      -36.44122271388955       16.81784031565192
H            5.85120278640033      -36.41881480817677       21.19824583560275
H            2.16829251331504      -33.33094735344542       28.13117404716983
H            0.48476733228141      -33.76951538715151       28.44756090478608
H            0.89050380191898      -32.64361426260359       27.13828160054995
H            3.01233399443260      -35.55052698088279       27.79673582058271
H            2.17257447145236      -36.72446546601376       26.79140754553683
H            1.44792226427430      -36.18722424836187       28.32413246346164
H           -1.40877086832705      -33.77522897891396       26.85672709704550
H           -1.79755441727666      -34.34133287807018       25.22575108368848
H           -0.53575384257992      -33.13619002271795       25.44501351308516
H           -0.91355016555157      -36.22547070496524       27.60507741392414
H           -0.00591151677905      -37.26425957708241       26.48904016653148
H           -1.55370116290974      -36.59214417435867       25.99776327910892
H            0.91086554101028      -35.85993703517647       22.15523587020069
H            3.08725885141962      -34.34384482020721       18.97025910071116
H            4.24560917559332      -32.56576499275599       20.04125322718174

          :  Hamiltonian                  GFN2-xTB          :
         :: total energy             -82.301969669682 Eh    ::
         :: gradient norm              0.000772937891 Eh/a0 ::
         :: HOMO-LUMO gap              3.222835948250 eV    ::
         :: SCC energy               -83.381803254685 Eh    ::
         :: -> dispersion             -0.061736943901 Eh    ::
         :: repulsion energy           1.079098421418 Eh    ::

    * Orbital Energies and Occupations

         #    Occupation            Energy/Eh            Energy/eV
      -------------------------------------------------------------
         1        2.0000           -0.6905887             -18.7919
       ...           ...                  ...                  ...
        63        2.0000           -0.4343757             -11.8200
        64        2.0000           -0.4331595             -11.7869
        65        2.0000           -0.4282474             -11.6532
        66        2.0000           -0.4224510             -11.4955
        67        2.0000           -0.4189929             -11.4014
        68        2.0000           -0.4151967             -11.2981
        69        2.0000           -0.4050481             -11.0219
        70        2.0000           -0.3994531             -10.8697
        71        2.0000           -0.3969165             -10.8006
        72        2.0000           -0.3947437             -10.7415
        73        2.0000           -0.3841727             -10.4539
        74        2.0000           -0.3513429              -9.5605
        75        2.0000           -0.3452058              -9.3935 (HOMO)
        76                         -0.2267687              -6.1707 (LUMO)
        77                         -0.2029456              -5.5224
        78                         -0.1859365              -5.0596
        79                         -0.1326270              -3.6090
        80                         -0.0965400              -2.6270
        81                         -0.0466589              -1.2697
        82                          0.0067842               0.1846
        83                          0.0101602               0.2765
        84                          0.0264514               0.7198
        85                          0.0296326               0.8063
        86                          0.0554135               1.5079
       ...                                ...                  ...
       144                          0.6905480              18.7908
      -------------------------------------------------------------
                  HL-Gap            0.1184370 Eh            3.2228 eV

     #   Z          covCN         q      C6AA      α(0)
     1   6 C        3.755    -0.117    22.795     6.808
     2   6 C        3.858     0.130    18.443     6.108
     3   8 O        1.638    -0.378    20.440     6.103
     4   6 C        3.755    -0.116    22.782     6.806
     5   6 C        3.859     0.129    18.447     6.108
     6   6 C        3.755    -0.118    22.809     6.810
     7   6 C        3.755    -0.116    22.772     6.804
     8   8 O        1.638    -0.372    20.327     6.086
     9   5 B        2.657     0.437    15.516     6.633
    10   6 C        3.662    -0.067    22.069     6.739
    11   6 C        2.891    -0.051    29.276     8.871
    12   6 C        3.263    -0.025    27.399     8.453
    13   1 H        0.925     0.025     2.651     2.546
    14   6 C        3.865    -0.014    20.791     6.484
    15   1 H        0.925     0.044     2.392     2.419
    16   6 C        2.864    -0.083    30.065     8.988
    17   5 B        2.662     0.432    15.558     6.639
    18   8 O        1.638    -0.371    20.307     6.083
    19   6 C        3.860     0.129    18.455     6.109
    20   6 C        3.755    -0.117    22.797     6.808
    21   6 C        3.755    -0.116    22.776     6.805
    22   6 C        3.860     0.129    18.455     6.109
    23   6 C        3.755    -0.116    22.782     6.806
    24   6 C        3.755    -0.117    22.804     6.809
    25   8 O        1.638    -0.371    20.312     6.084
    26   6 C        2.896    -0.027    28.675     8.780
    27   6 C        3.862    -0.009    20.705     6.471
    28   1 H        0.925     0.044     2.392     2.418
    29   6 C        3.690    -0.013    20.992     6.557
    30   6 C        2.888    -0.052    29.289     8.873
    31   6 C        3.265    -0.022    27.288     8.433
    32   1 H        0.925     0.026     2.639     2.540
    33   1 H        0.925     0.054     2.265     2.353
    34   1 H        0.925     0.040     2.450     2.448
    35   1 H        0.925     0.051     2.303     2.373
    36   1 H        0.925     0.052     2.293     2.368
    37   1 H        0.925     0.044     2.397     2.421
    38   1 H        0.925     0.043     2.413     2.429
    39   1 H        0.925     0.040     2.446     2.446
    40   1 H        0.925     0.052     2.289     2.366
    41   1 H        0.925     0.055     2.260     2.351
    42   1 H        0.925     0.043     2.410     2.428
    43   1 H        0.925     0.053     2.287     2.365
    44   1 H        0.925     0.043     2.408     2.427
    45   1 H        0.925     0.031     2.568     2.506
    46   1 H        0.925     0.054     2.269     2.356
    47   1 H        0.925     0.040     2.455     2.450
    48   1 H        0.925     0.052     2.296     2.370
    49   1 H        0.925     0.052     2.295     2.369
    50   1 H        0.925     0.044     2.400     2.422
    51   1 H        0.925     0.042     2.420     2.433
    52   1 H        0.925     0.042     2.416     2.431
    53   1 H        0.925     0.052     2.292     2.367
    54   1 H        0.925     0.044     2.399     2.422
    55   1 H        0.925     0.040     2.453     2.449
    56   1 H        0.925     0.052     2.295     2.369
    57   1 H        0.925     0.054     2.267     2.355
    58   1 H        0.925     0.038     2.476     2.461
    59   1 H        0.926     0.035     2.515     2.480
    60   1 H        0.925     0.021     2.715     2.577

Wiberg/Mayer (AO) data.
largest (>0.10) Wiberg bond orders for each atom

     #   Z sym  total        # sym  WBO       # sym  WBO       # sym  WBO
 ---------------------------------------------------------------------------
     1   6 C    3.994 --     2 C    0.997    34 H    0.984    33 H    0.983
                            35 H    0.982
     2   6 C    3.943 --     1 C    0.997     4 C    0.991     3 O    0.952
                             5 C    0.937
     3   8 O    2.222 --     9 B    1.120     2 C    0.952
     4   6 C    3.994 --     2 C    0.991    38 H    0.984    37 H    0.984
                            36 H    0.983
     5   6 C    3.942 --     6 C    0.997     7 C    0.991     8 O    0.951
                             2 C    0.937
     6   6 C    3.994 --     5 C    0.997    39 H    0.984    41 H    0.982
                            40 H    0.982
     7   6 C    3.994 --     5 C    0.991    42 H    0.984    44 H    0.984
                            43 H    0.983
     8   8 O    2.231 --     9 B    1.130     5 C    0.951
     9   5 B    3.382 --     8 O    1.130     3 O    1.120    10 C    1.011
    10   6 C    3.927 --    11 C    1.248     9 B    1.011    27 C    0.904
                            29 C    0.549
    11   6 C    3.988 --    12 C    1.631    10 C    1.248    45 H    0.962
    12   6 C    3.973 --    11 C    1.631    13 H    0.971    14 C    0.959
                            31 C    0.235
    13   1 H    0.999 --    12 C    0.971
    14   6 C    3.987 --    16 C    0.995    15 H    0.969    31 C    0.968
                            12 C    0.959
    15   1 H    0.998 --    14 C    0.969
    16   6 C    3.977 --    26 C    1.836    17 B    1.000    14 C    0.995
    17   5 B    3.376 --    25 O    1.130    18 O    1.128    16 C    1.000
    18   8 O    2.233 --    17 B    1.128    19 C    0.953
    19   6 C    3.943 --    20 C    0.997    21 C    0.991    18 O    0.953
                            22 C    0.936
    20   6 C    3.994 --    19 C    0.997    47 H    0.984    46 H    0.983
                            48 H    0.982
    21   6 C    3.994 --    19 C    0.991    51 H    0.984    50 H    0.984
                            49 H    0.983
    22   6 C    3.943 --    24 C    0.996    23 C    0.990    25 O    0.953
                            19 C    0.936
    23   6 C    3.995 --    22 C    0.990    52 H    0.984    54 H    0.984
                            53 H    0.983
    24   6 C    3.994 --    22 C    0.996    55 H    0.985    57 H    0.983
                            56 H    0.982
    25   8 O    2.234 --    17 B    1.130    22 C    0.953
    26   6 C    3.988 --    16 C    1.836    27 C    1.038    58 H    0.966
    27   6 C    3.975 --    26 C    1.038    28 H    0.968    29 C    0.951
                            10 C    0.904
    28   1 H    0.998 --    27 C    0.968
    29   6 C    3.945 --    30 C    1.278    59 H    0.973    27 C    0.951
                            10 C    0.549
    30   6 C    3.985 --    31 C    1.608    29 C    1.278    60 H    0.965
    31   6 C    3.965 --    30 C    1.608    32 H    0.972    14 C    0.968
                            12 C    0.235
    32   1 H    0.999 --    31 C    0.972
    33   1 H    0.997 --     1 C    0.983
    34   1 H    0.998 --     1 C    0.984
    35   1 H    0.997 --     1 C    0.982
    36   1 H    0.997 --     4 C    0.983
    37   1 H    0.998 --     4 C    0.984
    38   1 H    0.998 --     4 C    0.984
    39   1 H    0.998 --     6 C    0.984
    40   1 H    0.997 --     6 C    0.982
    41   1 H    0.997 --     6 C    0.982
    42   1 H    0.998 --     7 C    0.984
    43   1 H    0.997 --     7 C    0.983
    44   1 H    0.998 --     7 C    0.984
    45   1 H    0.999 --    11 C    0.962
    46   1 H    0.997 --    20 C    0.983
    47   1 H    0.998 --    20 C    0.984
    48   1 H    0.997 --    20 C    0.982
    49   1 H    0.997 --    21 C    0.983
    50   1 H    0.998 --    21 C    0.984
    51   1 H    0.998 --    21 C    0.984
    52   1 H    0.998 --    23 C    0.984
    53   1 H    0.997 --    23 C    0.983
    54   1 H    0.998 --    23 C    0.984
    55   1 H    0.998 --    24 C    0.985
    56   1 H    0.997 --    24 C    0.982
    57   1 H    0.997 --    24 C    0.983
    58   1 H    0.998 --    26 C    0.966
    59   1 H    0.998 --    29 C    0.973
    60   1 H    0.999 --    30 C    0.965
 ---------------------------------------------------------------------------

molecular dipole:
                 x           y           z       tot (Debye)
 q only:       -0.302      -0.473      -0.011
   full:       -0.199      -0.548      -0.110       1.509

           -------------------------------------------------
          | TOTAL ENERGY              -82.301969669682 Eh   |
          | GRADIENT NORM               0.000772937891 Eh/α |
          | HOMO-LUMO GAP               3.222835948250 eV   |
           -------------------------------------------------

 * finished run on 2022/07/09 at 18:33:31.111
