   * xtb version 6.5.0 (homebrew) compiled by 'nhattrup@GPGGRP-SHANNON.CHEME.CMU.EDU' on
          program call               : /opt/homebrew/bin/xtb bvl_bpin2_scan_9-2_xtb.xyz --chrg 0 --uhf 0 --opt --input xcontrol_bvl_bpin2_scan_9-2_xtb

   ID    Z sym.   atoms
    1    6 C      1, 2, 4-7, 10-12, 14, 16, 19-24, 26, 27, 29-31
    2    8 O      3, 8, 18, 25
    3    5 B      9, 17
    4    1 H      13, 15, 28, 32-60
constraining bond 12 31 to    2.5000000 Å, actual value:    2.3854544 Å
constraining bond 10 29 to    2.2778000 Å, actual value:    2.3851337 Å

          :  Hamiltonian                  GFN2-xTB          :
 * total energy  :   -82.0948319 Eh     change       -0.1255424E-07 Eh
 * total energy  :   -82.2242058 Eh     change       -0.1293739E+00 Eh
 * total energy  :   -82.2684791 Eh     change       -0.4427321E-01 Eh
 * total energy  :   -82.2691243 Eh     change       -0.6452580E-03 Eh
 * total energy  :   -82.2699428 Eh     change       -0.8184610E-03 Eh
 * total energy  :   -82.2690165 Eh     change        0.9262550E-03 Eh
 * total energy  :   -82.2704063 Eh     change       -0.1389750E-02 Eh
 * total energy  :   -82.2706436 Eh     change       -0.2373317E-03 Eh
 * total energy  :   -82.2709818 Eh     change       -0.3381678E-03 Eh
 * total energy  :   -82.2710668 Eh     change       -0.8505391E-04 Eh
 * total energy  :   -82.2716298 Eh     change       -0.1527725E-04 Eh
 * total energy  :   -82.2716526 Eh     change       -0.2279554E-04 Eh
 * total energy  :   -82.2716708 Eh     change       -0.1813241E-04 Eh
 * total energy  :   -82.2716867 Eh     change       -0.1598275E-04 Eh
 * total energy  :   -82.2717040 Eh     change       -0.1726316E-04 Eh
 * total energy  :   -82.2717243 Eh     change       -0.2029257E-04 Eh
 * total energy  :   -82.2717469 Eh     change       -0.2262222E-04 Eh
 * total energy  :   -82.2717682 Eh     change       -0.2124648E-04 Eh
 * total energy  :   -82.2717705 Eh     change       -0.2300539E-05 Eh
   *** GEOMETRY OPTIMIZATION CONVERGED AFTER 44 ITERATIONS ***

 final structure:
================
60
 xtb: 6.5.0 (homebrew)
C            3.63118005609133      -37.62441906405926       15.87363037333603
C            3.75155940730053      -38.10164530193632       17.31913267265769
O            3.31663690724935      -37.06914136860100       18.20147247575103
C            2.81029031965762      -39.29430607115425       17.53330267536409
C            5.21899057806119      -38.38995777462726       17.80245727612375
C            5.61094543729649      -39.86569728260768       17.82512595283380
C            6.27181067603347      -37.60302801324639       17.01109808909896
O            5.22928193557385      -37.87559062389384       19.13263681558904
B            4.15010959494990      -37.04479624270026       19.29247103494725
C            3.87422366145364      -36.23561138746945       20.57637327853238
C            4.87985280228883      -36.08951990893785       21.54801845761176
C            4.90040368872742      -35.30246880261377       22.65338563989899
H            5.79788793093858      -35.27700966864079       23.25358108739705
C            3.84902888599809      -34.24570454331883       23.00379710496675
H            4.08793607512310      -33.85370967209512       23.99510980813995
C            2.46848476168336      -34.85657073905326       23.07954605293449
B            1.73513366436382      -34.87279330655521       24.45603432326379
O            2.23869558448846      -34.30576946375404       25.59429813505207
C            1.40936324168265      -34.66872427637134       26.69658283090142
C            1.22063088851407      -33.46095762016850       27.61203099975977
C            2.15145915301813      -35.76962636711005       27.46523180822924
C            0.09659143170246      -35.18488793316052       26.00094363014123
C           -0.98947608913456      -34.10660616616391       25.89638674869729
C           -0.50840462908645      -36.44316709919179       26.62020054216005
O            0.52588935084323      -35.47218028000843       24.67077651324541
C            1.91187326302723      -35.41577829070911       22.00470159801067
C            2.52884103887978      -35.49990409821726       20.65182354169386
H            1.83928782820129      -35.98969235177510       19.96270299194946
C            3.00014691452087      -34.20966184732625       20.02791314249183
C            3.63894783186869      -33.16521320642713       20.68828700126321
C            3.94590039431446      -33.08615696174929       22.01324667128832
H            4.47791201515648      -32.21608981797417       22.36879380828137
H            2.58046121507700      -37.47143613226910       15.63966870095406
H            4.03685067409981      -38.37166993711136       15.19694979513668
H            4.14927476201538      -36.68244797557973       15.72565228839127
H            1.79092314066986      -38.96893095520991       17.33794470671783
H            2.86276324109499      -39.63249118085134       18.56522087213757
H            3.05427075498056      -40.11357076325802       16.86377781063027
H            5.52021356728538      -40.29458830426550       16.83081404646921
H            4.99254986426915      -40.42458412881896       18.51993356470707
H            6.64436004688442      -39.95008252950850       18.15208597733132
H            6.35396040007621      -37.97102741017394       15.99280050134379
H            7.23264852126915      -37.71703084093899       17.50782371671890
H            6.02267765127217      -36.54476489926616       17.00217860854904
H            5.74651479209241      -36.71730771315282       21.36893213173707
H            2.18010332413930      -33.19833946475116       28.05074509560191
H            0.52298599357776      -33.69977109838470       28.41016455161911
H            0.85791625531457      -32.60124514127945       27.05806786830569
H            3.11856055289831      -35.38102511303316       27.77622185781631
H            2.32675873665433      -36.62580290509579       26.81870682233024
H            1.59525963646193      -36.07888491468676       28.34499173583825
H           -1.39448551829851      -33.86005958796894       26.87326490407139
H           -1.79063474841201      -34.48502954940680       25.26577555344543
H           -0.58777213323157      -33.21247462814389       25.42658229502172
H           -0.76905208764012      -36.26393352064843       27.65978034912384
H            0.17868252979408      -37.28058820248425       26.55675434708305
H           -1.40939450502080      -36.70569658284824       26.07141049234000
H            0.93345493541866      -35.86483565225124       22.11063407381416
H            2.95410142719256      -34.18602037665443       18.95006458959402
H            3.88837236928315      -32.30698494032233       20.07178966157410

          :  Hamiltonian                  GFN2-xTB          :
         :: total energy             -82.271770460752 Eh    ::
         :: gradient norm              0.000301374964 Eh/a0 ::
         :: HOMO-LUMO gap              1.149603998709 eV    ::
         :: SCC energy               -83.341929006796 Eh    ::
         :: -> dispersion             -0.062499498414 Eh    ::
         :: repulsion energy           1.069215724583 Eh    ::

    * Orbital Energies and Occupations

         #    Occupation            Energy/Eh            Energy/eV
      -------------------------------------------------------------
         1        2.0000           -0.6869245             -18.6922
       ...           ...                  ...                  ...
        63        2.0000           -0.4358336             -11.8596
        64        2.0000           -0.4311776             -11.7329
        65        2.0000           -0.4220225             -11.4838
        66        2.0000           -0.4195706             -11.4171
        67        2.0000           -0.4166472             -11.3375
        68        2.0000           -0.4144302             -11.2772
        69        2.0000           -0.4000852             -10.8869
        70        2.0000           -0.3990610             -10.8590
        71        2.0000           -0.3962968             -10.7838
        72        2.0000           -0.3958467             -10.7715
        73        2.0000           -0.3901777             -10.6173
        74        2.0000           -0.3664098              -9.9705
        75        2.0000           -0.3241562              -8.8207 (HOMO)
        76                         -0.2819090              -7.6711 (LUMO)
        77                         -0.2179177              -5.9298
        78                         -0.1826865              -4.9712
        79                         -0.1518909              -4.1332
        80                         -0.0939102              -2.5554
        81                         -0.0889744              -2.4211
        82                          0.0103676               0.2821
        83                          0.0132445               0.3604
        84                          0.0292174               0.7950
        85                          0.0298917               0.8134
        86                          0.0576316               1.5682
       ...                                ...                  ...
       144                          0.6746085              18.3570
      -------------------------------------------------------------
                  HL-Gap            0.0422472 Eh            1.1496 eV

     #   Z          covCN         q      C6AA      α(0)
     1   6 C        3.755    -0.116    22.786     6.806
     2   6 C        3.859     0.130    18.439     6.107
     3   8 O        1.638    -0.379    20.454     6.105
     4   6 C        3.755    -0.116    22.771     6.804
     5   6 C        3.858     0.130    18.441     6.107
     6   6 C        3.755    -0.117    22.797     6.808
     7   6 C        3.755    -0.115    22.757     6.802
     8   8 O        1.638    -0.375    20.386     6.095
     9   5 B        2.658     0.429    15.596     6.650
    10   6 C        2.934    -0.078    29.947     8.975
    11   6 C        2.891    -0.034    28.853     8.807
    12   6 C        2.892    -0.038    28.937     8.820
    13   1 H        0.926     0.028     2.617     2.530
    14   6 C        3.859    -0.018    20.851     6.494
    15   1 H        0.924     0.046     2.371     2.408
    16   6 C        2.867    -0.081    30.021     8.981
    17   5 B        2.659     0.431    15.576     6.645
    18   8 O        1.638    -0.370    20.281     6.079
    19   6 C        3.859     0.129    18.460     6.110
    20   6 C        3.755    -0.117    22.797     6.808
    21   6 C        3.755    -0.116    22.776     6.805
    22   6 C        3.859     0.129    18.459     6.110
    23   6 C        3.755    -0.116    22.783     6.806
    24   6 C        3.755    -0.117    22.805     6.809
    25   8 O        1.638    -0.370    20.292     6.081
    26   6 C        2.897    -0.028    28.688     8.782
    27   6 C        3.858    -0.008    20.684     6.468
    28   1 H        0.924     0.049     2.337     2.391
    29   6 C        2.962    -0.022    28.557     8.765
    30   6 C        2.888    -0.033    28.809     8.800
    31   6 C        2.893    -0.031    28.781     8.796
    32   1 H        0.926     0.030     2.584     2.514
    33   1 H        0.925     0.054     2.275     2.359
    34   1 H        0.925     0.039     2.463     2.454
    35   1 H        0.925     0.051     2.312     2.378
    36   1 H        0.925     0.051     2.304     2.374
    37   1 H        0.925     0.043     2.404     2.425
    38   1 H        0.925     0.042     2.426     2.436
    39   1 H        0.925     0.039     2.461     2.453
    40   1 H        0.925     0.052     2.295     2.369
    41   1 H        0.925     0.054     2.274     2.358
    42   1 H        0.925     0.042     2.423     2.434
    43   1 H        0.925     0.051     2.303     2.373
    44   1 H        0.925     0.042     2.421     2.433
    45   1 H        0.925     0.037     2.494     2.470
    46   1 H        0.925     0.054     2.271     2.356
    47   1 H        0.925     0.039     2.456     2.451
    48   1 H        0.925     0.052     2.299     2.371
    49   1 H        0.925     0.052     2.296     2.369
    50   1 H        0.925     0.044     2.398     2.422
    51   1 H        0.925     0.042     2.421     2.433
    52   1 H        0.925     0.042     2.416     2.431
    53   1 H        0.925     0.052     2.291     2.367
    54   1 H        0.925     0.044     2.400     2.423
    55   1 H        0.925     0.040     2.453     2.449
    56   1 H        0.925     0.052     2.296     2.369
    57   1 H        0.925     0.054     2.266     2.354
    58   1 H        0.925     0.037     2.491     2.468
    59   1 H        0.926     0.038     2.479     2.462
    60   1 H        0.925     0.028     2.619     2.531

Wiberg/Mayer (AO) data.
largest (>0.10) Wiberg bond orders for each atom

     #   Z sym  total        # sym  WBO       # sym  WBO       # sym  WBO
 ---------------------------------------------------------------------------
     1   6 C    3.994 --     2 C    0.997    34 H    0.985    33 H    0.983
                            35 H    0.982
     2   6 C    3.944 --     1 C    0.997     4 C    0.990     3 O    0.955
                             5 C    0.937
     3   8 O    2.214 --     9 B    1.108     2 C    0.955
     4   6 C    3.994 --     2 C    0.990    38 H    0.984    37 H    0.984
                            36 H    0.983
     5   6 C    3.943 --     6 C    0.996     7 C    0.990     8 O    0.955
                             2 C    0.937
     6   6 C    3.994 --     5 C    0.996    39 H    0.985    41 H    0.983
                            40 H    0.982
     7   6 C    3.994 --     5 C    0.990    42 H    0.984    44 H    0.984
                            43 H    0.983
     8   8 O    2.220 --     9 B    1.114     5 C    0.955
     9   5 B    3.391 --     8 O    1.114     3 O    1.108    10 C    1.035
    10   6 C    3.923 --    11 C    1.324     9 B    1.035    27 C    0.931
                            29 C    0.343    31 C    0.163
    11   6 C    3.992 --    12 C    1.625    10 C    1.324    45 H    0.958
    12   6 C    3.973 --    11 C    1.625    14 C    0.973    13 H    0.971
                            31 C    0.159    29 C    0.147
    13   1 H    0.999 --    12 C    0.971
    14   6 C    3.994 --    16 C    0.987    31 C    0.981    12 C    0.973
                            15 H    0.972
    15   1 H    0.998 --    14 C    0.972
    16   6 C    3.976 --    26 C    1.851    17 B    0.999    14 C    0.987
    17   5 B    3.376 --    25 O    1.131    18 O    1.129    16 C    0.999
    18   8 O    2.235 --    17 B    1.129    19 C    0.954
    19   6 C    3.943 --    20 C    0.996    21 C    0.991    18 O    0.954
                            22 C    0.936
    20   6 C    3.994 --    19 C    0.996    47 H    0.985    46 H    0.983
                            48 H    0.982
    21   6 C    3.994 --    19 C    0.991    51 H    0.984    50 H    0.984
                            49 H    0.983
    22   6 C    3.943 --    24 C    0.996    23 C    0.991    25 O    0.953
                            19 C    0.936
    23   6 C    3.995 --    22 C    0.991    52 H    0.984    54 H    0.984
                            53 H    0.983
    24   6 C    3.994 --    22 C    0.996    55 H    0.985    57 H    0.983
                            56 H    0.982
    25   8 O    2.236 --    17 B    1.131    22 C    0.953
    26   6 C    3.987 --    16 C    1.851    27 C    1.021    58 H    0.966
    27   6 C    3.991 --    26 C    1.021    29 C    0.981    28 H    0.968
                            10 C    0.931
    28   1 H    0.997 --    27 C    0.968
    29   6 C    3.941 --    30 C    1.381    27 C    0.981    59 H    0.973
                            10 C    0.343    12 C    0.147
    30   6 C    3.993 --    31 C    1.584    29 C    1.381    60 H    0.961
    31   6 C    3.957 --    30 C    1.584    14 C    0.981    32 H    0.973
                            10 C    0.163    12 C    0.159
    32   1 H    0.999 --    31 C    0.973
    33   1 H    0.997 --     1 C    0.983
    34   1 H    0.998 --     1 C    0.985
    35   1 H    0.997 --     1 C    0.982
    36   1 H    0.997 --     4 C    0.983
    37   1 H    0.998 --     4 C    0.984
    38   1 H    0.998 --     4 C    0.984
    39   1 H    0.998 --     6 C    0.985
    40   1 H    0.997 --     6 C    0.982
    41   1 H    0.997 --     6 C    0.983
    42   1 H    0.998 --     7 C    0.984
    43   1 H    0.997 --     7 C    0.983
    44   1 H    0.998 --     7 C    0.984
    45   1 H    0.998 --    11 C    0.958
    46   1 H    0.997 --    20 C    0.983
    47   1 H    0.998 --    20 C    0.985
    48   1 H    0.997 --    20 C    0.982
    49   1 H    0.997 --    21 C    0.983
    50   1 H    0.998 --    21 C    0.984
    51   1 H    0.998 --    21 C    0.984
    52   1 H    0.998 --    23 C    0.984
    53   1 H    0.997 --    23 C    0.983
    54   1 H    0.998 --    23 C    0.984
    55   1 H    0.998 --    24 C    0.985
    56   1 H    0.997 --    24 C    0.982
    57   1 H    0.997 --    24 C    0.983
    58   1 H    0.998 --    26 C    0.966
    59   1 H    0.998 --    29 C    0.973
    60   1 H    0.999 --    30 C    0.961
 ---------------------------------------------------------------------------

molecular dipole:
                 x           y           z       tot (Debye)
 q only:       -0.291      -0.288       0.057
   full:       -0.125      -0.340      -0.085       0.945

           -------------------------------------------------
          | TOTAL ENERGY              -82.271770460752 Eh   |
          | GRADIENT NORM               0.000301374964 Eh/α |
          | HOMO-LUMO GAP               1.149603998709 eV   |
           -------------------------------------------------

 * finished run on 2022/07/09 at 18:33:31.173
