   * xtb version 6.5.0 (homebrew) compiled by 'nhattrup@GPGGRP-SHANNON.CHEME.CMU.EDU' on
          program call               : /opt/homebrew/bin/xtb bvl_bpin2_scan_8-4_xtb.xyz --chrg 0 --uhf 0 --opt --input xcontrol_bvl_bpin2_scan_8-4_xtb

   ID    Z sym.   atoms
    1    6 C      1, 2, 4-7, 10-12, 14, 16, 19-24, 26, 27, 29-31
    2    8 O      3, 8, 18, 25
    3    5 B      9, 17
    4    1 H      13, 15, 28, 32-60
constraining bond 12 31 to    2.3889000 Å, actual value:    2.2757671 Å
constraining bond 10 29 to    2.0556000 Å, actual value:    2.1633590 Å

          :  Hamiltonian                  GFN2-xTB          :
 * total energy  :   -82.1121247 Eh     change       -0.9941488E-09 Eh
 * total energy  :   -82.2433495 Eh     change       -0.1312248E+00 Eh
 * total energy  :   -82.2867966 Eh     change       -0.4344705E-01 Eh
 * total energy  :   -82.2874666 Eh     change       -0.6700686E-03 Eh
 * total energy  :   -82.2880981 Eh     change       -0.6314463E-03 Eh
 * total energy  :   -82.2848988 Eh     change        0.3199315E-02 Eh
 * total energy  :   -82.2885472 Eh     change       -0.3648489E-02 Eh
 * total energy  :   -82.2887386 Eh     change       -0.1914056E-03 Eh
 * total energy  :   -82.2889984 Eh     change       -0.2597509E-03 Eh
 * total energy  :   -82.2892218 Eh     change       -0.2233870E-03 Eh
 * total energy  :   -82.2893280 Eh     change       -0.4972906E-04 Eh
 * total energy  :   -82.2893645 Eh     change       -0.3659224E-04 Eh
 * total energy  :   -82.2893949 Eh     change       -0.3036547E-04 Eh
 * total energy  :   -82.2894154 Eh     change       -0.2046332E-04 Eh
 * total energy  :   -82.2894293 Eh     change       -0.1388284E-04 Eh
 * total energy  :   -82.2894427 Eh     change       -0.1344806E-04 Eh
 * total energy  :   -82.2894501 Eh     change       -0.7365665E-05 Eh
 * total energy  :   -82.2894609 Eh     change       -0.1083288E-04 Eh
 * total energy  :   -82.2894653 Eh     change       -0.4369394E-05 Eh
   *** GEOMETRY OPTIMIZATION CONVERGED AFTER 20 ITERATIONS ***

 final structure:
================
60
 xtb: 6.5.0 (homebrew)
C            3.58937501690826      -37.63233695033051       15.86878290508136
C            3.76373752553428      -38.12176586249057       17.30484569575257
O            3.28083189826992      -37.12770770066871       18.20748689149487
C            2.90324753927693      -39.37449480165079       17.51481947208259
C            5.25497387878983      -38.32254697595361       17.76006972816802
C            5.73792479356838      -39.77131561124915       17.76540862354608
C            6.24343319324535      -37.46541733851516       16.95889672205239
O            5.25850381856391      -37.81491062313035       19.09340857384445
B            4.13766777410852      -37.04929601893640       19.27641713473379
C            3.85736511360276      -36.23138474051481       20.55785214871532
C            4.87902329235613      -36.08104787575147       21.53158508577787
C            4.89807171916476      -35.30337365867553       22.63428893312041
H            5.79970297955151      -35.27800212184315       23.22959635772750
C            3.82833453910577      -34.30255032764443       23.02068790338487
H            4.07023713108916      -33.88878406524613       24.00181507389295
C            2.45317887768375      -34.91934130686442       23.11454349049857
B            1.72282161047193      -34.89856270540781       24.49315315305183
O            2.25135783029808      -34.35804399545133       25.63288842913907
C            1.39799160756943      -34.67716125134653       26.73114465120734
C            1.28016865931681      -33.46777479223670       27.65580651938609
C            2.06571895170438      -35.82965457647282       27.49235757546781
C            0.05973935307089      -35.10689223442692       26.02751960142162
C           -0.94717669321567      -33.95609794855856       25.90436420695562
C           -0.63720425863711      -36.31407364674730       26.65111976874737
O            0.48163099975073      -35.43198285714163       24.70361272140330
C            1.88237795524692      -35.50704006471576       22.06169604869619
C            2.46399070123114      -35.63057475584766       20.70450538396475
H            1.77291274749801      -36.13992521781362       20.03431630303155
C            3.04396627479305      -34.42189958117255       20.03604900101970
C            3.66364154635295      -33.33269337144215       20.67200086223046
C            3.95965541274873      -33.20616915507468       21.98659898995561
H            4.47094960746298      -32.31169547520310       22.31280792038772
H            2.52729657750908      -37.54812310125943       15.65172945168864
H            4.03520006234234      -38.33948072384661       15.17463078868405
H            4.03943212724105      -36.65470469562118       15.72927269476587
H            1.86212194373498      -39.11225762486234       17.34048773575311
H            2.99427363930787      -39.72597155795949       18.53950343718627
H            3.18755719090493      -40.16578208372047       16.82756578278152
H            5.66454590796355      -40.19748718346460       16.76840991665065
H            5.16278860339265      -40.37397851502973       18.46075052648727
H            6.77782007213544      -39.79384541509350       18.08172403545661
H            6.32906137636808      -37.81490220983975       15.93450597344775
H            7.21807598215259      -37.52691994510504       17.43767945002091
H            5.93098844691369      -36.42405461486575       16.96923614644782
H            5.76104856417400      -36.67469201611021       21.31786748970693
H            2.25237628141366      -33.26628489516974       28.09881254188502
H            0.56739680648027      -33.67127889204511       28.45048205040001
H            0.97013106999634      -32.58357014508192       27.10844725099468
H            3.05809849618156      -35.51041371072180       27.80248253954795
H            2.17937155477532      -36.69260190496324       26.84099070950064
H            1.49174595662709      -36.10470098275964       28.37216211936805
H           -1.34596267606856      -33.67687385129371       26.87499814569234
H           -1.76483425088155      -34.28179719778461       25.26548429621369
H           -0.47860909169211      -33.09459540874840       25.43533250404689
H           -0.88216438629170      -36.11176154249475       27.69030802457145
H           -0.01487232983616      -37.20084444069654       26.59027674989935
H           -1.55630515227328      -36.51004077856362       26.10459671267787
H            0.90406956372829      -35.94947356874317       22.19455322171581
H            2.97600681563910      -34.41680774917692       18.96008561488191
H            3.92899945157922      -32.50920763645436       20.01699821358725

          :  Hamiltonian                  GFN2-xTB          :
         :: total energy             -82.289465274169 Eh    ::
         :: gradient norm              0.000776097280 Eh/a0 ::
         :: HOMO-LUMO gap              2.056456696863 eV    ::
         :: SCC energy               -83.364821362772 Eh    ::
         :: -> dispersion             -0.062658262022 Eh    ::
         :: repulsion energy           1.074504371163 Eh    ::

    * Orbital Energies and Occupations

         #    Occupation            Energy/Eh            Energy/eV
      -------------------------------------------------------------
         1        2.0000           -0.6884391             -18.7334
       ...           ...                  ...                  ...
        63        2.0000           -0.4347261             -11.8295
        64        2.0000           -0.4320911             -11.7578
        65        2.0000           -0.4225471             -11.4981
        66        2.0000           -0.4213956             -11.4668
        67        2.0000           -0.4181291             -11.3779
        68        2.0000           -0.4162841             -11.3277
        69        2.0000           -0.4013675             -10.9218
        70        2.0000           -0.3976685             -10.8211
        71        2.0000           -0.3963872             -10.7862
        72        2.0000           -0.3940235             -10.7219
        73        2.0000           -0.3920410             -10.6680
        74        2.0000           -0.3629521              -9.8764
        75        2.0000           -0.3318521              -9.0302 (HOMO)
        76                         -0.2562787              -6.9737 (LUMO)
        77                         -0.2189757              -5.9586
        78                         -0.1828262              -4.9750
        79                         -0.1440343              -3.9194
        80                         -0.0954062              -2.5961
        81                         -0.0817672              -2.2250
        82                          0.0098434               0.2679
        83                          0.0106962               0.2911
        84                          0.0281003               0.7646
        85                          0.0297559               0.8097
        86                          0.0569519               1.5497
       ...                                ...                  ...
       144                          0.6773156              18.4307
      -------------------------------------------------------------
                  HL-Gap            0.0755734 Eh            2.0565 eV

     #   Z          covCN         q      C6AA      α(0)
     1   6 C        3.755    -0.117    22.787     6.807
     2   6 C        3.857     0.130    18.439     6.107
     3   8 O        1.638    -0.380    20.470     6.107
     4   6 C        3.755    -0.116    22.774     6.805
     5   6 C        3.859     0.130    18.442     6.107
     6   6 C        3.755    -0.117    22.801     6.809
     7   6 C        3.755    -0.115    22.761     6.803
     8   8 O        1.638    -0.375    20.377     6.093
     9   5 B        2.656     0.432    15.572     6.646
    10   6 C        3.247    -0.073    28.752     8.684
    11   6 C        2.890    -0.039    28.971     8.825
    12   6 C        2.908    -0.038    28.937     8.821
    13   1 H        0.926     0.026     2.646     2.544
    14   6 C        3.862    -0.016    20.820     6.489
    15   1 H        0.924     0.045     2.385     2.415
    16   6 C        2.866    -0.080    30.005     8.979
    17   5 B        2.661     0.431    15.560     6.640
    18   8 O        1.638    -0.370    20.279     6.079
    19   6 C        3.860     0.129    18.457     6.110
    20   6 C        3.755    -0.117    22.797     6.808
    21   6 C        3.755    -0.116    22.777     6.805
    22   6 C        3.860     0.129    18.455     6.109
    23   6 C        3.755    -0.116    22.783     6.806
    24   6 C        3.755    -0.117    22.805     6.809
    25   8 O        1.638    -0.371    20.309     6.083
    26   6 C        2.896    -0.028    28.705     8.784
    27   6 C        3.860    -0.005    20.622     6.458
    28   1 H        0.925     0.047     2.359     2.402
    29   6 C        3.275    -0.018    27.057     8.379
    30   6 C        2.888    -0.037    28.918     8.816
    31   6 C        2.910    -0.032    28.809     8.801
    32   1 H        0.926     0.028     2.620     2.531
    33   1 H        0.925     0.054     2.273     2.358
    34   1 H        0.925     0.039     2.458     2.452
    35   1 H        0.925     0.051     2.310     2.377
    36   1 H        0.925     0.052     2.301     2.372
    37   1 H        0.925     0.044     2.402     2.424
    38   1 H        0.925     0.042     2.420     2.433
    39   1 H        0.925     0.039     2.456     2.451
    40   1 H        0.925     0.052     2.294     2.369
    41   1 H        0.925     0.054     2.268     2.355
    42   1 H        0.925     0.042     2.420     2.433
    43   1 H        0.925     0.052     2.297     2.370
    44   1 H        0.925     0.042     2.418     2.432
    45   1 H        0.925     0.035     2.516     2.480
    46   1 H        0.925     0.054     2.268     2.355
    47   1 H        0.925     0.039     2.456     2.451
    48   1 H        0.925     0.052     2.297     2.370
    49   1 H        0.925     0.052     2.294     2.368
    50   1 H        0.925     0.044     2.399     2.422
    51   1 H        0.925     0.042     2.420     2.433
    52   1 H        0.925     0.043     2.415     2.430
    53   1 H        0.925     0.052     2.292     2.368
    54   1 H        0.925     0.044     2.401     2.423
    55   1 H        0.925     0.040     2.452     2.449
    56   1 H        0.925     0.052     2.293     2.368
    57   1 H        0.925     0.054     2.267     2.355
    58   1 H        0.925     0.038     2.481     2.463
    59   1 H        0.926     0.038     2.472     2.459
    60   1 H        0.925     0.026     2.646     2.544

Wiberg/Mayer (AO) data.
largest (>0.10) Wiberg bond orders for each atom

     #   Z sym  total        # sym  WBO       # sym  WBO       # sym  WBO
 ---------------------------------------------------------------------------
     1   6 C    3.994 --     2 C    0.997    34 H    0.985    33 H    0.983
                            35 H    0.982
     2   6 C    3.943 --     1 C    0.997     4 C    0.991     3 O    0.954
                             5 C    0.937
     3   8 O    2.216 --     9 B    1.111     2 C    0.954
     4   6 C    3.994 --     2 C    0.991    38 H    0.984    37 H    0.984
                            36 H    0.983
     5   6 C    3.943 --     6 C    0.997     7 C    0.990     8 O    0.953
                             2 C    0.937
     6   6 C    3.994 --     5 C    0.997    39 H    0.985    41 H    0.983
                            40 H    0.982
     7   6 C    3.994 --     5 C    0.990    42 H    0.984    44 H    0.984
                            43 H    0.983
     8   8 O    2.223 --     9 B    1.118     5 C    0.953
     9   5 B    3.389 --     8 O    1.118     3 O    1.111    10 C    1.029
    10   6 C    3.917 --    11 C    1.254     9 B    1.029    27 C    0.919
                            29 C    0.460    31 C    0.132
    11   6 C    3.991 --    12 C    1.689    10 C    1.254    45 H    0.960
    12   6 C    3.978 --    11 C    1.689    14 C    0.974    13 H    0.971
                            31 C    0.129    29 C    0.119
    13   1 H    0.999 --    12 C    0.971
    14   6 C    3.995 --    16 C    0.986    31 C    0.981    12 C    0.974
                            15 H    0.972
    15   1 H    0.998 --    14 C    0.972
    16   6 C    3.976 --    26 C    1.843    17 B    0.999    14 C    0.986
    17   5 B    3.375 --    25 O    1.130    18 O    1.130    16 C    0.999
    18   8 O    2.236 --    17 B    1.130    19 C    0.953
    19   6 C    3.943 --    20 C    0.997    21 C    0.991    18 O    0.953
                            22 C    0.937
    20   6 C    3.994 --    19 C    0.997    47 H    0.985    46 H    0.983
                            48 H    0.982
    21   6 C    3.994 --    19 C    0.991    51 H    0.984    50 H    0.984
                            49 H    0.983
    22   6 C    3.943 --    24 C    0.996    23 C    0.990    25 O    0.953
                            19 C    0.937
    23   6 C    3.995 --    22 C    0.990    52 H    0.984    54 H    0.984
                            53 H    0.983
    24   6 C    3.994 --    22 C    0.996    55 H    0.985    57 H    0.983
                            56 H    0.982
    25   8 O    2.234 --    17 B    1.130    22 C    0.953
    26   6 C    3.988 --    16 C    1.843    27 C    1.031    58 H    0.966
    27   6 C    3.986 --    26 C    1.031    29 C    0.970    28 H    0.968
                            10 C    0.919
    28   1 H    0.998 --    27 C    0.968
    29   6 C    3.937 --    30 C    1.298    59 H    0.973    27 C    0.970
                            10 C    0.460    12 C    0.119
    30   6 C    3.992 --    31 C    1.655    29 C    1.298    60 H    0.962
    31   6 C    3.967 --    30 C    1.655    14 C    0.981    32 H    0.972
                            10 C    0.132    12 C    0.129
    32   1 H    0.999 --    31 C    0.972
    33   1 H    0.997 --     1 C    0.983
    34   1 H    0.998 --     1 C    0.985
    35   1 H    0.997 --     1 C    0.982
    36   1 H    0.997 --     4 C    0.983
    37   1 H    0.998 --     4 C    0.984
    38   1 H    0.998 --     4 C    0.984
    39   1 H    0.998 --     6 C    0.985
    40   1 H    0.997 --     6 C    0.982
    41   1 H    0.997 --     6 C    0.983
    42   1 H    0.998 --     7 C    0.984
    43   1 H    0.997 --     7 C    0.983
    44   1 H    0.998 --     7 C    0.984
    45   1 H    0.999 --    11 C    0.960
    46   1 H    0.997 --    20 C    0.983
    47   1 H    0.998 --    20 C    0.985
    48   1 H    0.997 --    20 C    0.982
    49   1 H    0.997 --    21 C    0.983
    50   1 H    0.998 --    21 C    0.984
    51   1 H    0.998 --    21 C    0.984
    52   1 H    0.998 --    23 C    0.984
    53   1 H    0.997 --    23 C    0.983
    54   1 H    0.998 --    23 C    0.984
    55   1 H    0.998 --    24 C    0.985
    56   1 H    0.997 --    24 C    0.982
    57   1 H    0.997 --    24 C    0.983
    58   1 H    0.998 --    26 C    0.966
    59   1 H    0.998 --    29 C    0.973
    60   1 H    0.999 --    30 C    0.962
 ---------------------------------------------------------------------------

molecular dipole:
                 x           y           z       tot (Debye)
 q only:       -0.313      -0.323       0.006
   full:       -0.191      -0.383      -0.128       1.137

           -------------------------------------------------
          | TOTAL ENERGY              -82.289465274169 Eh   |
          | GRADIENT NORM               0.000776097280 Eh/α |
          | HOMO-LUMO GAP               2.056456696863 eV   |
           -------------------------------------------------

 * finished run on 2022/07/09 at 18:33:33.502
