   * xtb version 6.5.0 (homebrew) compiled by 'nhattrup@GPGGRP-SHANNON.CHEME.CMU.EDU' on
          program call               : /opt/homebrew/bin/xtb bvl_bpin2_scan_3-7_xtb.xyz --chrg 0 --uhf 0 --opt --input xcontrol_bvl_bpin2_scan_3-7_xtb

   ID    Z sym.   atoms
    1    6 C      1, 2, 4-7, 10-12, 14, 16, 19-24, 26, 27, 29-31
    2    8 O      3, 8, 18, 25
    3    5 B      9, 17
    4    1 H      13, 15, 28, 32-60
constraining bond 12 31 to    1.8333000 Å, actual value:    1.7217481 Å
constraining bond 10 29 to    1.7222000 Å, actual value:    1.8345939 Å

          :  Hamiltonian                  GFN2-xTB          :
 * total energy  :   -82.1208439 Eh     change       -0.5360761E-09 Eh
 * total energy  :   -82.2569794 Eh     change       -0.1361355E+00 Eh
 * total energy  :   -82.2981103 Eh     change       -0.4113094E-01 Eh
 * total energy  :   -82.2989255 Eh     change       -0.8152011E-03 Eh
 * total energy  :   -82.2974165 Eh     change        0.1509025E-02 Eh
 * total energy  :   -82.2986676 Eh     change       -0.1251073E-02 Eh
 * total energy  :   -82.2993279 Eh     change       -0.6602658E-03 Eh
 * total energy  :   -82.2996084 Eh     change       -0.2805190E-03 Eh
 * total energy  :   -82.2996468 Eh     change       -0.3837659E-04 Eh
 * total energy  :   -82.2997347 Eh     change       -0.8793730E-04 Eh
 * total energy  :   -82.2997595 Eh     change       -0.8448033E-05 Eh
 * total energy  :   -82.2997689 Eh     change       -0.9408155E-05 Eh
 * total energy  :   -82.2997775 Eh     change       -0.8656014E-05 Eh
 * total energy  :   -82.2997921 Eh     change       -0.1453596E-04 Eh
 * total energy  :   -82.2997999 Eh     change       -0.7882089E-05 Eh
 * total energy  :   -82.2998115 Eh     change       -0.1151279E-04 Eh
 * total energy  :   -82.2998170 Eh     change       -0.5523135E-05 Eh
 * total energy  :   -82.2998227 Eh     change       -0.5705044E-05 Eh
 * total energy  :   -82.2998258 Eh     change       -0.3085864E-05 Eh
   *** GEOMETRY OPTIMIZATION CONVERGED AFTER 20 ITERATIONS ***

 final structure:
================
60
 xtb: 6.5.0 (homebrew)
C            3.46150975488442      -37.75881556566092       15.92146224164704
C            3.71245995300365      -38.14193378703041       17.37829281059381
O            3.24513792034437      -37.09660873326496       18.23125978880888
C            2.89067003798731      -39.39246939385299       17.71518292169557
C            5.22798247813349      -38.27709627916855       17.77763971936713
C            5.73698186874668      -39.71132246333526       17.90240867374056
C            6.16412622325492      -37.48953126368525       16.85281871650280
O            5.28434871364214      -37.64579710421798       19.05761406300607
B            4.15038882915122      -36.91024761414218       19.23946273945537
C            3.90264143652486      -35.96811321257009       20.46289295555543
C            4.93745009127618      -35.85885618668050       21.42651277717994
C            4.97261229992838      -34.97026712197675       22.47655395082012
H            5.91170057879822      -34.88327787456492       23.01001142593738
C            3.81924278760916      -34.24939406675830       23.09139397724195
H            4.05640230134401      -33.85203141165221       24.07514995072416
C            2.46005726970303      -34.86956204319639       23.11876884496469
B            1.71094103412966      -34.88924989724226       24.48528207020435
O            2.21635669886277      -34.38009394675205       25.65074224473037
C            1.34764651472691      -34.74222526374709       26.72358788912326
C            1.20039465940906      -33.56428140620815       27.68400572942942
C            2.01451442303106      -35.91069559006400       27.46091284812616
C            0.02575285463946      -35.16262453171637       25.98403882918633
C           -0.99121511095276      -34.01872983020436       25.88157405963332
C           -0.66682285382576      -36.39906561478760       26.55259765290612
O            0.47168526630986      -35.43980085151302       24.65771721475060
C            1.89745465562081      -35.42897734916335       22.04625223220521
C            2.46824041037212      -35.53838952109486       20.69408776694890
H            1.78890650339670      -36.03142055346571       20.00547607640959
C            3.23497030913651      -34.43762573380707       20.04230459613859
C            3.85408574256683      -33.34636570441002       20.67955452954777
C            4.26739008944620      -33.34665035106035       21.99470775836842
H            4.88608893910390      -32.51451611926018       22.30905747370093
H            2.38897875549795      -37.70496873576847       15.75143049303617
H            3.88521839023990      -38.50831696225215       15.25873898623328
H            3.88727488447018      -36.78782713594171       15.69006295677694
H            1.83808476986764      -39.16621075232105       17.56071671603112
H            3.02624280124821      -39.66202890862075       18.75949057965794
H            3.16897595313022      -40.22784510057298       17.07982979960263
H            5.63136087387819      -40.23421018096073       16.95583180718680
H            5.20197324168597      -40.25033797431723       18.67739870647620
H            6.78883418625910      -39.68672156185379       18.17586875546406
H            6.20186824151468      -37.93247681187073       15.86227465516609
H            7.16244632263273      -37.49963084614131       17.28404950694290
H            5.84089052746528      -36.45401709289411       16.78186426832859
H            5.87169520263702      -36.32356596503467       21.13947655809167
H            2.16125640119892      -33.36928070032777       28.15386106731922
H            0.47306916216783      -33.79970863107872       28.45635500997805
H            0.89390505590632      -32.66531645979862       27.15920108336015
H            2.99564670322079      -35.58919295017568       27.80296386884579
H            2.15370348842997      -36.75048868570308       26.78473158863682
H            1.42552945470584      -36.22140434018439       28.31863726651966
H           -1.41177105173846      -33.77706615914128       26.85306173223723
H           -1.79260066541566      -34.33029820384166       25.21561465689760
H           -0.52278859706536      -33.13689364659631       25.45179039184960
H           -0.93716675917472      -36.23636265881490       27.59235763987480
H           -0.03001248737992      -37.27423743424609       26.47488157415489
H           -1.57061502521356      -36.58900806292605       25.97904288638280
H            0.91457162810202      -35.86497238273065       22.16516000006425
H            3.07810441427839      -34.34753474256811       18.97549888657611
H            4.27887144714505      -32.59110052706269       20.03025402965829

          :  Hamiltonian                  GFN2-xTB          :
         :: total energy             -82.299825773371 Eh    ::
         :: gradient norm              0.000700761171 Eh/a0 ::
         :: HOMO-LUMO gap              2.792008892171 eV    ::
         :: SCC energy               -83.375886060768 Eh    ::
         :: -> dispersion             -0.060964977060 Eh    ::
         :: repulsion energy           1.075413846777 Eh    ::

    * Orbital Energies and Occupations

         #    Occupation            Energy/Eh            Energy/eV
      -------------------------------------------------------------
         1        2.0000           -0.6920134             -18.8306
       ...           ...                  ...                  ...
        63        2.0000           -0.4363143             -11.8727
        64        2.0000           -0.4353841             -11.8474
        65        2.0000           -0.4301354             -11.7046
        66        2.0000           -0.4229892             -11.5101
        67        2.0000           -0.4188608             -11.3978
        68        2.0000           -0.4137790             -11.2595
        69        2.0000           -0.4075017             -11.0887
        70        2.0000           -0.4006461             -10.9021
        71        2.0000           -0.3975102             -10.8168
        72        2.0000           -0.3953430             -10.7578
        73        2.0000           -0.3798412             -10.3360
        74        2.0000           -0.3664831              -9.9725
        75        2.0000           -0.3270751              -8.9002 (HOMO)
        76                         -0.2244707              -6.1082 (LUMO)
        77                         -0.2074874              -5.6460
        78                         -0.1608104              -4.3759
        79                         -0.1142004              -3.1076
        80                         -0.0926699              -2.5217
        81                         -0.0134852              -0.3670
        82                          0.0042346               0.1152
        83                          0.0106490               0.2898
        84                          0.0253437               0.6896
        85                          0.0300186               0.8168
        86                          0.0546348               1.4867
       ...                                ...                  ...
       144                          0.6961017              18.9419
      -------------------------------------------------------------
                  HL-Gap            0.1026044 Eh            2.7920 eV

     #   Z          covCN         q      C6AA      α(0)
     1   6 C        3.755    -0.117    22.799     6.808
     2   6 C        3.858     0.129    18.447     6.108
     3   8 O        1.638    -0.376    20.402     6.097
     4   6 C        3.755    -0.116    22.786     6.806
     5   6 C        3.859     0.129    18.453     6.109
     6   6 C        3.755    -0.118    22.814     6.811
     7   6 C        3.755    -0.116    22.779     6.805
     8   8 O        1.638    -0.370    20.290     6.080
     9   5 B        2.657     0.439    15.490     6.628
    10   6 C        3.774    -0.060    21.684     6.635
    11   6 C        2.891    -0.063    29.563     8.914
    12   6 C        3.683    -0.013    21.010     6.563
    13   1 H        0.925     0.028     2.620     2.531
    14   6 C        3.865    -0.018    20.847     6.493
    15   1 H        0.925     0.043     2.404     2.425
    16   6 C        2.864    -0.084    30.104     8.994
    17   5 B        2.663     0.432    15.553     6.637
    18   8 O        1.638    -0.372    20.332     6.087
    19   6 C        3.860     0.129    18.454     6.109
    20   6 C        3.755    -0.117    22.797     6.808
    21   6 C        3.755    -0.116    22.776     6.805
    22   6 C        3.860     0.129    18.454     6.109
    23   6 C        3.755    -0.116    22.783     6.806
    24   6 C        3.755    -0.117    22.803     6.809
    25   8 O        1.638    -0.372    20.317     6.084
    26   6 C        2.896    -0.026    28.653     8.776
    27   6 C        3.862    -0.016    20.816     6.488
    28   1 H        0.925     0.042     2.421     2.433
    29   6 C        3.803    -0.007    20.708     6.479
    30   6 C        2.888    -0.067    29.659     8.929
    31   6 C        3.685    -0.010    20.961     6.555
    32   1 H        0.925     0.028     2.617     2.530
    33   1 H        0.925     0.055     2.260     2.351
    34   1 H        0.925     0.040     2.443     2.444
    35   1 H        0.925     0.052     2.300     2.372
    36   1 H        0.925     0.053     2.286     2.365
    37   1 H        0.925     0.044     2.393     2.419
    38   1 H        0.925     0.043     2.408     2.427
    39   1 H        0.925     0.041     2.439     2.442
    40   1 H        0.925     0.053     2.286     2.365
    41   1 H        0.925     0.055     2.253     2.347
    42   1 H        0.925     0.043     2.404     2.425
    43   1 H        0.925     0.053     2.280     2.361
    44   1 H        0.925     0.044     2.402     2.423
    45   1 H        0.925     0.029     2.604     2.524
    46   1 H        0.925     0.054     2.272     2.357
    47   1 H        0.925     0.039     2.456     2.451
    48   1 H        0.925     0.052     2.296     2.370
    49   1 H        0.925     0.052     2.297     2.370
    50   1 H        0.925     0.044     2.400     2.423
    51   1 H        0.925     0.042     2.421     2.433
    52   1 H        0.925     0.042     2.418     2.432
    53   1 H        0.925     0.052     2.292     2.367
    54   1 H        0.925     0.044     2.398     2.422
    55   1 H        0.925     0.040     2.455     2.450
    56   1 H        0.925     0.052     2.295     2.369
    57   1 H        0.925     0.054     2.267     2.355
    58   1 H        0.925     0.038     2.473     2.459
    59   1 H        0.925     0.034     2.537     2.491
    60   1 H        0.925     0.017     2.775     2.605

Wiberg/Mayer (AO) data.
largest (>0.10) Wiberg bond orders for each atom

     #   Z sym  total        # sym  WBO       # sym  WBO       # sym  WBO
 ---------------------------------------------------------------------------
     1   6 C    3.994 --     2 C    0.997    34 H    0.984    33 H    0.982
                            35 H    0.982
     2   6 C    3.942 --     1 C    0.997     4 C    0.991     3 O    0.951
                             5 C    0.936
     3   8 O    2.227 --     9 B    1.127     2 C    0.951
     4   6 C    3.994 --     2 C    0.991    38 H    0.984    37 H    0.984
                            36 H    0.983
     5   6 C    3.941 --     6 C    0.997     7 C    0.991     8 O    0.950
                             2 C    0.936
     6   6 C    3.994 --     5 C    0.997    39 H    0.984    41 H    0.982
                            40 H    0.982
     7   6 C    3.994 --     5 C    0.991    42 H    0.984    44 H    0.984
                            43 H    0.983
     8   8 O    2.236 --     9 B    1.138     5 C    0.950
     9   5 B    3.378 --     8 O    1.138     3 O    1.127    10 C    0.997
    10   6 C    3.933 --    11 C    1.276     9 B    0.997    27 C    0.889
                            29 C    0.582
    11   6 C    3.981 --    12 C    1.492    10 C    1.276    45 H    0.964
                            30 C    0.144
    12   6 C    3.962 --    11 C    1.492    13 H    0.971    14 C    0.936
                            31 C    0.419
    13   1 H    0.999 --    12 C    0.971
    14   6 C    3.972 --    16 C    1.004    15 H    0.968    31 C    0.946
                            12 C    0.936
    15   1 H    0.998 --    14 C    0.968
    16   6 C    3.977 --    26 C    1.827    14 C    1.004    17 B    1.001
    17   5 B    3.376 --    25 O    1.129    18 O    1.126    16 C    1.001
    18   8 O    2.231 --    17 B    1.126    19 C    0.953
    19   6 C    3.943 --    20 C    0.997    21 C    0.991    18 O    0.953
                            22 C    0.936
    20   6 C    3.994 --    19 C    0.997    47 H    0.985    46 H    0.983
                            48 H    0.982
    21   6 C    3.994 --    19 C    0.991    51 H    0.984    50 H    0.984
                            49 H    0.983
    22   6 C    3.943 --    24 C    0.996    23 C    0.990    25 O    0.953
                            19 C    0.936
    23   6 C    3.995 --    22 C    0.990    52 H    0.985    54 H    0.984
                            53 H    0.983
    24   6 C    3.994 --    22 C    0.996    55 H    0.985    57 H    0.983
                            56 H    0.982
    25   8 O    2.233 --    17 B    1.129    22 C    0.953
    26   6 C    3.989 --    16 C    1.827    27 C    1.043    58 H    0.965
    27   6 C    3.964 --    26 C    1.043    28 H    0.969    29 C    0.934
                            10 C    0.889
    28   1 H    0.998 --    27 C    0.969
    29   6 C    3.950 --    30 C    1.301    59 H    0.972    27 C    0.934
                            10 C    0.582
    30   6 C    3.973 --    31 C    1.474    29 C    1.301    60 H    0.966
                            11 C    0.144
    31   6 C    3.956 --    30 C    1.474    32 H    0.972    14 C    0.946
                            12 C    0.419
    32   1 H    0.999 --    31 C    0.972
    33   1 H    0.997 --     1 C    0.982
    34   1 H    0.998 --     1 C    0.984
    35   1 H    0.997 --     1 C    0.982
    36   1 H    0.997 --     4 C    0.983
    37   1 H    0.998 --     4 C    0.984
    38   1 H    0.998 --     4 C    0.984
    39   1 H    0.998 --     6 C    0.984
    40   1 H    0.997 --     6 C    0.982
    41   1 H    0.997 --     6 C    0.982
    42   1 H    0.998 --     7 C    0.984
    43   1 H    0.997 --     7 C    0.983
    44   1 H    0.998 --     7 C    0.984
    45   1 H    0.999 --    11 C    0.964
    46   1 H    0.997 --    20 C    0.983
    47   1 H    0.998 --    20 C    0.985
    48   1 H    0.997 --    20 C    0.982
    49   1 H    0.997 --    21 C    0.983
    50   1 H    0.998 --    21 C    0.984
    51   1 H    0.998 --    21 C    0.984
    52   1 H    0.998 --    23 C    0.985
    53   1 H    0.997 --    23 C    0.983
    54   1 H    0.998 --    23 C    0.984
    55   1 H    0.998 --    24 C    0.985
    56   1 H    0.997 --    24 C    0.982
    57   1 H    0.997 --    24 C    0.983
    58   1 H    0.998 --    26 C    0.965
    59   1 H    0.998 --    29 C    0.972
    60   1 H    0.999 --    30 C    0.966
 ---------------------------------------------------------------------------

molecular dipole:
                 x           y           z       tot (Debye)
 q only:       -0.254      -0.542      -0.027
   full:       -0.144      -0.612      -0.101       1.620

           -------------------------------------------------
          | TOTAL ENERGY              -82.299825773371 Eh   |
          | GRADIENT NORM               0.000700761171 Eh/α |
          | HOMO-LUMO GAP               2.792008892171 eV   |
           -------------------------------------------------

 * finished run on 2022/07/09 at 18:33:27.846
