   * xtb version 6.5.0 (homebrew) compiled by 'nhattrup@GPGGRP-SHANNON.CHEME.CMU.EDU' on
          program call               : /opt/homebrew/bin/xtb bvl_bpin2_scan_9-3_xtb.xyz --chrg 0 --uhf 0 --opt --input xcontrol_bvl_bpin2_scan_9-3_xtb

   ID    Z sym.   atoms
    1    6 C      1, 2, 4-7, 10-12, 14, 16, 19-24, 26, 27, 29-31
    2    8 O      3, 8, 18, 25
    3    5 B      9, 17
    4    1 H      13, 15, 28, 32-60
constraining bond 12 31 to    2.5000000 Å, actual value:    2.3860124 Å
constraining bond 10 29 to    2.1667000 Å, actual value:    2.2739897 Å

          :  Hamiltonian                  GFN2-xTB          :
 * total energy  :   -82.1019415 Eh     change       -0.3859540E-08 Eh
 * total energy  :   -82.2320088 Eh     change       -0.1300672E+00 Eh
 * total energy  :   -82.2759166 Eh     change       -0.4390781E-01 Eh
 * total energy  :   -82.2765501 Eh     change       -0.6335603E-03 Eh
 * total energy  :   -82.2772821 Eh     change       -0.7319423E-03 Eh
 * total energy  :   -82.2754293 Eh     change        0.1852762E-02 Eh
 * total energy  :   -82.2776869 Eh     change       -0.2257556E-02 Eh
 * total energy  :   -82.2778890 Eh     change       -0.2021530E-03 Eh
 * total energy  :   -82.2782714 Eh     change       -0.3823854E-03 Eh
 * total energy  :   -82.2783711 Eh     change       -0.9974272E-04 Eh
 * total energy  :   -82.2787262 Eh     change       -0.2936039E-05 Eh
 * total energy  :   -82.2787279 Eh     change       -0.1671334E-05 Eh
 * total energy  :   -82.2787316 Eh     change       -0.3713418E-05 Eh
 * total energy  :   -82.2787370 Eh     change       -0.5383596E-05 Eh
 * total energy  :   -82.2787393 Eh     change       -0.2355750E-05 Eh
 * total energy  :   -82.2787424 Eh     change       -0.3121470E-05 Eh
 * total energy  :   -82.2787468 Eh     change       -0.4318857E-05 Eh
 * total energy  :   -82.2787495 Eh     change       -0.2696491E-05 Eh
 * total energy  :   -82.2787521 Eh     change       -0.2638309E-05 Eh
   *** GEOMETRY OPTIMIZATION CONVERGED AFTER 42 ITERATIONS ***

 final structure:
================
60
 xtb: 6.5.0 (homebrew)
C            3.63791135226938      -37.56254740308351       15.84703980054471
C            3.78693098334526      -38.09826397002873       17.26927727037668
O            3.30026656043417      -37.13087134922979       18.19757066954587
C            2.91201311412503      -39.34843380921816       17.42870961414008
C            5.26896383584271      -38.32844236797171       17.73848255636119
C            5.74201124892601      -39.77937787306734       17.68970515441411
C            6.27471363543668      -37.44685889346678       16.98653778136990
O            5.25410752380370      -37.87767683793900       19.09173260440421
B            4.13622918319882      -37.10873929601676       19.28692807203938
C            3.83771641994636      -36.34535893575305       20.59427223176833
C            4.84628650458546      -36.20911647137115       21.57689448056721
C            4.86547331101023      -35.42722265821406       22.67805890259534
H            5.75028474167890      -35.42236761543679       23.29714918676355
C            3.82188812436857      -34.36253237085020       23.01479061794531
H            4.07149241941714      -33.94577545665734       23.99314528680277
C            2.44129645909583      -34.96962627584401       23.12083585179886
B            1.71525091656928      -34.92198432326823       24.50081552706587
O            2.24894655520936      -34.34170451364404       25.61840987505941
C            1.40689019714099      -34.62860564134095       26.73344884626347
C            1.28564386149296      -33.38663842941990       27.61367854413274
C            2.09247276836124      -35.74475387484931       27.53194557721115
C            0.06725982346183      -35.09568252505917       26.05589174012101
C           -0.95349403099521      -33.96026344855515       25.90700179679485
C           -0.60925822342469      -36.29123703299203       26.72297325730634
O            0.48010695575885      -35.45717803850131       24.73824340031789
C            1.87273490144347      -35.56344492591357       22.07017868752171
C            2.46243632236872      -35.68594732905238       20.71203758660556
H            1.76843516799077      -36.19706736136092       20.04450464933150
C            2.97566491356539      -34.43958511036140       20.04640241701698
C            3.59146385669587      -33.35359225735576       20.67997916154390
C            3.89645499290338      -33.22974562916128       21.99483481573587
H            4.39134493213837      -32.33069997557109       22.33104763595893
H            2.58002270572062      -37.46033523026770       15.61778694383439
H            4.08623936857020      -38.25271492491766       15.13749347703446
H            4.10027537854759      -36.58616155940075       15.74394601707530
H            1.87589292047520      -39.06969802039769       17.25009767278865
H            2.98665525071146      -39.73156270575694       18.44341728220543
H            3.19730646884691      -40.12084652973890       16.72089369440086
H            5.67531516244289      -40.16272221167074       16.67508010991253
H            5.15554800552271      -40.40557666012712       18.35404931641888
H            6.77846361684402      -39.82237334974688       18.01500727473090
H            6.37575205022648      -37.75995305831077       15.95170101561750
H            7.24119407368610      -37.53047121657964       17.47834223831963
H            5.96665616514962      -36.40500730988553       17.02865223524903
H            5.70926583149360      -36.83959380477402       21.39078055908271
H            2.25972216179120      -33.16167016364205       28.04102384018178
H            0.58055159493802      -33.56554038069608       28.42092679338213
H            0.96519313499411      -32.52568473095321       27.03609742771209
H            3.08172657139125      -35.40119168867753       27.82580479130627
H            2.21536385281072      -36.62877443562510       26.91128704161549
H            1.52598554802143      -35.99560033595153       28.42370128933694
H           -1.34591762401029      -33.65494657133340       26.87237228009309
H           -1.77368408145497      -34.31368976196717       25.28641340307479
H           -0.49827242019128      -33.10903900950952       25.40705223601562
H           -0.85149767899249      -36.05840537670532       27.75641465772915
H            0.02533710485502      -37.17071912765823       26.68765941198765
H           -1.52831826252315      -36.51813387990745       26.18844516499875
H            0.89402159319053      -36.00538778785204       22.20166241226646
H            2.92401158820943      -34.44652852356626       18.96918086681709
H            3.82101059056826      -32.51328964382984       20.03208694738934

          :  Hamiltonian                  GFN2-xTB          :
         :: total energy             -82.278752093918 Eh    ::
         :: gradient norm              0.000874694925 Eh/a0 ::
         :: HOMO-LUMO gap              1.487033323137 eV    ::
         :: SCC energy               -83.350841045147 Eh    ::
         :: -> dispersion             -0.062714908359 Eh    ::
         :: repulsion energy           1.071162030372 Eh    ::

    * Orbital Energies and Occupations

         #    Occupation            Energy/Eh            Energy/eV
      -------------------------------------------------------------
         1        2.0000           -0.6875810             -18.7100
       ...           ...                  ...                  ...
        63        2.0000           -0.4356859             -11.8556
        64        2.0000           -0.4313470             -11.7375
        65        2.0000           -0.4223959             -11.4940
        66        2.0000           -0.4202396             -11.4353
        67        2.0000           -0.4173591             -11.3569
        68        2.0000           -0.4156570             -11.3106
        69        2.0000           -0.4004000             -10.8954
        70        2.0000           -0.3972402             -10.8095
        71        2.0000           -0.3968380             -10.7985
        72        2.0000           -0.3961608             -10.7801
        73        2.0000           -0.3907116             -10.6318
        74        2.0000           -0.3660927              -9.9619
        75        2.0000           -0.3262096              -8.8766 (HOMO)
        76                         -0.2715621              -7.3896 (LUMO)
        77                         -0.2189109              -5.9569
        78                         -0.1820191              -4.9530
        79                         -0.1489407              -4.0529
        80                         -0.0944309              -2.5696
        81                         -0.0877765              -2.3885
        82                          0.0100169               0.2726
        83                          0.0122879               0.3344
        84                          0.0288836               0.7860
        85                          0.0297299               0.8090
        86                          0.0573835               1.5615
       ...                                ...                  ...
       144                          0.6745932              18.3566
      -------------------------------------------------------------
                  HL-Gap            0.0546475 Eh            1.4870 eV

     #   Z          covCN         q      C6AA      α(0)
     1   6 C        3.755    -0.116    22.785     6.806
     2   6 C        3.858     0.130    18.437     6.107
     3   8 O        1.638    -0.380    20.477     6.108
     4   6 C        3.755    -0.116    22.772     6.804
     5   6 C        3.859     0.130    18.440     6.107
     6   6 C        3.755    -0.117    22.799     6.808
     7   6 C        3.755    -0.115    22.758     6.802
     8   8 O        1.638    -0.375    20.389     6.095
     9   5 B        2.658     0.430    15.585     6.648
    10   6 C        3.053    -0.076    29.831     8.957
    11   6 C        2.890    -0.036    28.895     8.813
    12   6 C        2.893    -0.039    28.977     8.826
    13   1 H        0.926     0.027     2.631     2.536
    14   6 C        3.860    -0.018    20.859     6.495
    15   1 H        0.924     0.045     2.379     2.412
    16   6 C        2.867    -0.080    29.993     8.977
    17   5 B        2.660     0.431    15.567     6.642
    18   8 O        1.638    -0.370    20.276     6.078
    19   6 C        3.859     0.129    18.459     6.110
    20   6 C        3.755    -0.117    22.797     6.808
    21   6 C        3.755    -0.116    22.777     6.805
    22   6 C        3.860     0.129    18.456     6.110
    23   6 C        3.755    -0.116    22.783     6.806
    24   6 C        3.755    -0.117    22.805     6.809
    25   8 O        1.638    -0.371    20.300     6.082
    26   6 C        2.896    -0.028    28.701     8.784
    27   6 C        3.859    -0.005    20.630     6.459
    28   1 H        0.925     0.048     2.347     2.396
    29   6 C        3.081    -0.020    28.423     8.740
    30   6 C        2.888    -0.034    28.842     8.805
    31   6 C        2.894    -0.034    28.834     8.804
    32   1 H        0.926     0.029     2.600     2.522
    33   1 H        0.925     0.054     2.276     2.359
    34   1 H        0.925     0.039     2.461     2.453
    35   1 H        0.925     0.051     2.312     2.378
    36   1 H        0.925     0.051     2.304     2.374
    37   1 H        0.925     0.043     2.404     2.425
    38   1 H        0.925     0.042     2.424     2.435
    39   1 H        0.925     0.039     2.459     2.452
    40   1 H        0.925     0.052     2.295     2.369
    41   1 H        0.925     0.054     2.271     2.357
    42   1 H        0.925     0.042     2.422     2.434
    43   1 H        0.925     0.052     2.301     2.372
    44   1 H        0.925     0.042     2.421     2.433
    45   1 H        0.925     0.037     2.495     2.470
    46   1 H        0.925     0.054     2.269     2.355
    47   1 H        0.925     0.039     2.456     2.451
    48   1 H        0.925     0.052     2.298     2.371
    49   1 H        0.925     0.052     2.294     2.369
    50   1 H        0.925     0.044     2.399     2.422
    51   1 H        0.925     0.042     2.420     2.433
    52   1 H        0.925     0.043     2.415     2.430
    53   1 H        0.925     0.052     2.292     2.367
    54   1 H        0.925     0.044     2.401     2.423
    55   1 H        0.925     0.040     2.452     2.449
    56   1 H        0.925     0.052     2.294     2.368
    57   1 H        0.925     0.054     2.266     2.354
    58   1 H        0.925     0.037     2.489     2.467
    59   1 H        0.926     0.039     2.457     2.451
    60   1 H        0.925     0.027     2.625     2.534

Wiberg/Mayer (AO) data.
largest (>0.10) Wiberg bond orders for each atom

     #   Z sym  total        # sym  WBO       # sym  WBO       # sym  WBO
 ---------------------------------------------------------------------------
     1   6 C    3.994 --     2 C    0.997    34 H    0.985    33 H    0.983
                            35 H    0.982
     2   6 C    3.944 --     1 C    0.997     4 C    0.990     3 O    0.955
                             5 C    0.937
     3   8 O    2.213 --     9 B    1.108     2 C    0.955
     4   6 C    3.994 --     2 C    0.990    38 H    0.984    37 H    0.984
                            36 H    0.983
     5   6 C    3.943 --     6 C    0.997     7 C    0.990     8 O    0.954
                             2 C    0.937
     6   6 C    3.994 --     5 C    0.997    39 H    0.985    41 H    0.983
                            40 H    0.982
     7   6 C    3.994 --     5 C    0.990    42 H    0.985    44 H    0.984
                            43 H    0.983
     8   8 O    2.220 --     9 B    1.115     5 C    0.954
     9   5 B    3.391 --     8 O    1.115     3 O    1.108    10 C    1.034
    10   6 C    3.916 --    11 C    1.275     9 B    1.034    27 C    0.925
                            29 C    0.409    31 C    0.148
    11   6 C    3.991 --    12 C    1.676    10 C    1.275    45 H    0.958
    12   6 C    3.977 --    11 C    1.676    14 C    0.975    13 H    0.971
                            29 C    0.131    31 C    0.126
    13   1 H    0.999 --    12 C    0.971
    14   6 C    3.994 --    16 C    0.985    31 C    0.981    12 C    0.975
                            15 H    0.972
    15   1 H    0.998 --    14 C    0.972
    16   6 C    3.976 --    26 C    1.845    17 B    0.998    14 C    0.985
    17   5 B    3.375 --    25 O    1.131    18 O    1.130    16 C    0.998
    18   8 O    2.236 --    17 B    1.130    19 C    0.953
    19   6 C    3.943 --    20 C    0.997    21 C    0.991    18 O    0.953
                            22 C    0.936
    20   6 C    3.994 --    19 C    0.997    47 H    0.985    46 H    0.983
                            48 H    0.982
    21   6 C    3.994 --    19 C    0.991    51 H    0.984    50 H    0.984
                            49 H    0.983
    22   6 C    3.942 --    24 C    0.996    23 C    0.991    25 O    0.953
                            19 C    0.936
    23   6 C    3.995 --    22 C    0.991    52 H    0.984    54 H    0.984
                            53 H    0.983
    24   6 C    3.994 --    22 C    0.996    55 H    0.985    57 H    0.983
                            56 H    0.982
    25   8 O    2.235 --    17 B    1.131    22 C    0.953
    26   6 C    3.987 --    16 C    1.845    27 C    1.027    58 H    0.966
    27   6 C    3.989 --    26 C    1.027    29 C    0.975    28 H    0.967
                            10 C    0.925
    28   1 H    0.998 --    27 C    0.967
    29   6 C    3.936 --    30 C    1.327    27 C    0.975    59 H    0.973
                            10 C    0.409    12 C    0.131
    30   6 C    3.992 --    31 C    1.637    29 C    1.327    60 H    0.961
    31   6 C    3.964 --    30 C    1.637    14 C    0.981    32 H    0.972
                            10 C    0.148    12 C    0.126
    32   1 H    0.999 --    31 C    0.972
    33   1 H    0.997 --     1 C    0.983
    34   1 H    0.998 --     1 C    0.985
    35   1 H    0.997 --     1 C    0.982
    36   1 H    0.997 --     4 C    0.983
    37   1 H    0.998 --     4 C    0.984
    38   1 H    0.998 --     4 C    0.984
    39   1 H    0.998 --     6 C    0.985
    40   1 H    0.997 --     6 C    0.982
    41   1 H    0.997 --     6 C    0.983
    42   1 H    0.998 --     7 C    0.985
    43   1 H    0.997 --     7 C    0.983
    44   1 H    0.998 --     7 C    0.984
    45   1 H    0.998 --    11 C    0.958
    46   1 H    0.997 --    20 C    0.983
    47   1 H    0.998 --    20 C    0.985
    48   1 H    0.997 --    20 C    0.982
    49   1 H    0.997 --    21 C    0.983
    50   1 H    0.998 --    21 C    0.984
    51   1 H    0.998 --    21 C    0.984
    52   1 H    0.998 --    23 C    0.984
    53   1 H    0.997 --    23 C    0.983
    54   1 H    0.998 --    23 C    0.984
    55   1 H    0.998 --    24 C    0.985
    56   1 H    0.997 --    24 C    0.982
    57   1 H    0.997 --    24 C    0.983
    58   1 H    0.998 --    26 C    0.966
    59   1 H    0.998 --    29 C    0.973
    60   1 H    0.999 --    30 C    0.961
 ---------------------------------------------------------------------------

molecular dipole:
                 x           y           z       tot (Debye)
 q only:       -0.300      -0.249       0.020
   full:       -0.158      -0.291      -0.121       0.896

           -------------------------------------------------
          | TOTAL ENERGY              -82.278752093918 Eh   |
          | GRADIENT NORM               0.000874694925 Eh/α |
          | HOMO-LUMO GAP               1.487033323137 eV   |
           -------------------------------------------------

 * finished run on 2022/07/09 at 18:33:34.653
