   * xtb version 6.5.0 (homebrew) compiled by 'nhattrup@GPGGRP-SHANNON.CHEME.CMU.EDU' on
          program call               : /opt/homebrew/bin/xtb bvl_bpin2_scan_3-5_xtb.xyz --chrg 0 --uhf 0 --opt --input xcontrol_bvl_bpin2_scan_3-5_xtb

   ID    Z sym.   atoms
    1    6 C      1, 2, 4-7, 10-12, 14, 16, 19-24, 26, 27, 29-31
    2    8 O      3, 8, 18, 25
    3    5 B      9, 17
    4    1 H      13, 15, 28, 32-60
constraining bond 12 31 to    1.8333000 Å, actual value:    1.7192106 Å
constraining bond 10 29 to    1.9444000 Å, actual value:    2.0577295 Å

          :  Hamiltonian                  GFN2-xTB          :
 * total energy  :   -82.1216339 Eh     change       -0.9345484E-09 Eh
 * total energy  :   -82.2558830 Eh     change       -0.1342491E+00 Eh
 * total energy  :   -82.2976511 Eh     change       -0.4176809E-01 Eh
 * total energy  :   -82.2984408 Eh     change       -0.7897503E-03 Eh
 * total energy  :   -82.2945545 Eh     change        0.3886386E-02 Eh
 * total energy  :   -82.2989609 Eh     change       -0.4406449E-02 Eh
 * total energy  :   -82.2991469 Eh     change       -0.1860059E-03 Eh
 * total energy  :   -82.2992746 Eh     change       -0.1276722E-03 Eh
 * total energy  :   -82.2993928 Eh     change       -0.1182496E-03 Eh
 * total energy  :   -82.2994978 Eh     change       -0.1049597E-03 Eh
 * total energy  :   -82.2997921 Eh     change       -0.8242131E-05 Eh
 * total energy  :   -82.2998002 Eh     change       -0.8067419E-05 Eh
 * total energy  :   -82.2998053 Eh     change       -0.5094756E-05 Eh
 * total energy  :   -82.2998131 Eh     change       -0.7813201E-05 Eh
 * total energy  :   -82.2998224 Eh     change       -0.9333811E-05 Eh
 * total energy  :   -82.2998343 Eh     change       -0.1190288E-04 Eh
 * total energy  :   -82.2998456 Eh     change       -0.1122904E-04 Eh
 * total energy  :   -82.2998528 Eh     change       -0.7285145E-05 Eh
 * total energy  :   -82.2998577 Eh     change       -0.4833957E-05 Eh
   *** GEOMETRY OPTIMIZATION CONVERGED AFTER 37 ITERATIONS ***

 final structure:
================
60
 xtb: 6.5.0 (homebrew)
C            3.46547567323158      -37.74072676292381       15.92658649689138
C            3.71893445641103      -38.16220980427312       17.37233307292389
O            3.24087326248429      -37.14809557504011       18.25496769595609
C            2.91052404568992      -39.43044260872556       17.67427712524598
C            5.23498214040339      -38.29338216230162       17.76813595791836
C            5.76362160484341      -39.72470634474455       17.82713809518049
C            6.16004522486323      -37.45309283148391       16.87854672717917
O            5.28060710997678      -37.71655114839198       19.07307247644499
B            4.13979418503553      -36.99156326488646       19.27562780215207
C            3.88894552431181      -36.09262590348463       20.52194864358865
C            4.92111497522964      -35.91013161719312       21.42823416400395
C            4.96675680793474      -35.00164147334932       22.48533958057023
H            5.91254044514446      -34.90066737913550       23.00043648143791
C            3.81433509351462      -34.27126706138076       23.10503659808416
H            4.05426569982626      -33.87869467469863       24.09009478542603
C            2.45160884038149      -34.87821962169425       23.12322569741295
B            1.69553416571877      -34.89112370834412       24.48801019252424
O            2.20474418896999      -34.36878853856859       25.64558553631683
C            1.34173949907891      -34.72043514707164       26.72635958224311
C            1.19848047909492      -33.53137574875025       27.67354894858567
C            2.01555892083265      -35.87883674863368       27.47307988485801
C            0.01745004622080      -35.15169442028369       25.99734019356752
C           -1.00253720811537      -34.01113608549365       25.88887128069723
C           -0.66947326514946      -36.38259507527798       26.58471608842721
O            0.45820835367883      -35.44132142649067       24.67103436574965
C            1.90029597864751      -35.42946306964973       22.04174964129953
C            2.50015600707533      -35.53036725055997       20.69041441611513
H            1.81075981994405      -36.01615613645277       20.00261460018740
C            3.15182082434672      -34.35551840778749       20.04984796200197
C            3.85144270228825      -33.35402295171625       20.67551517822772
C            4.28099302654089      -33.37196559108874       22.00661091552356
H            4.93559740858688      -32.56808832868153       22.31578547470425
H            2.39277079226596      -37.69854698192673       15.75453697275347
H            3.90291016376046      -38.46325259281750       15.24298249075191
H            3.87700535118149      -36.75680859074514       15.72596723250563
H            1.85513240590538      -39.20864722936897       17.53259832064062
H            3.05436278180214      -39.72992689563166       18.70940712147082
H            3.19277603870551      -40.24349766251935       17.01227824738497
H            5.66085311621435      -40.20418778436954       16.85742228785420
H            5.23847774647883      -40.30616404401241       18.57779057448836
H            6.81620832760496      -39.69919944052690       18.09779807408197
H            6.20909936424488      -37.85508237503785       15.87106618526789
H            7.15704657821176      -37.46274318625452       17.31299438052726
H            5.81815336497950      -36.42156655513266       16.84824817309121
H            5.86046253541572      -36.37551037650086       21.15641495649379
H            2.16288890377329      -33.32862127335403       28.13275581456516
H            0.47815955734225      -33.75872840529206       28.45477779023369
H            0.88593928485098      -32.63953626518417       27.14021283922864
H            2.99805189260400      -35.55076031211887       27.80488580715754
H            2.15268526600501      -36.72597717270741       26.80570481301910
H            1.43300440298835      -36.18101153415041       28.33815550019243
H           -1.41678921500796      -33.76018144676708       26.86075179225322
H           -1.80798159342663      -34.33090706532082       25.23179359670722
H           -0.53859859539976      -33.13299830333531       25.44687149644031
H           -0.93057073284114      -36.20759494379970       27.62493722025905
H           -0.03306202369704      -37.25849976771261       26.51213811031071
H           -1.57845391860805      -36.57987189037840       26.02197540694637
H            0.91429701639924      -35.86199856027125       22.14374015497804
H            3.00546586807277      -34.27871290162341       18.98142969833345
H            4.28821928313069      -32.58950957458204       20.04415928061811

          :  Hamiltonian                  GFN2-xTB          :
         :: total energy             -82.299857682285 Eh    ::
         :: gradient norm              0.000319142943 Eh/a0 ::
         :: HOMO-LUMO gap              3.083682231204 eV    ::
         :: SCC energy               -83.377946807601 Eh    ::
         :: -> dispersion             -0.061152788678 Eh    ::
         :: repulsion energy           1.077421279284 Eh    ::

    * Orbital Energies and Occupations

         #    Occupation            Energy/Eh            Energy/eV
      -------------------------------------------------------------
         1        2.0000           -0.6889067             -18.7461
       ...           ...                  ...                  ...
        63        2.0000           -0.4350013             -11.8370
        64        2.0000           -0.4326922             -11.7742
        65        2.0000           -0.4307644             -11.7217
        66        2.0000           -0.4213795             -11.4663
        67        2.0000           -0.4194804             -11.4146
        68        2.0000           -0.4150284             -11.2935
        69        2.0000           -0.4070379             -11.0761
        70        2.0000           -0.3980439             -10.8313
        71        2.0000           -0.3972300             -10.8092
        72        2.0000           -0.3944807             -10.7344
        73        2.0000           -0.3831140             -10.4251
        74        2.0000           -0.3561646              -9.6917
        75        2.0000           -0.3391023              -9.2274 (HOMO)
        76                         -0.2257790              -6.1438 (LUMO)
        77                         -0.2062658              -5.6128
        78                         -0.1825635              -4.9678
        79                         -0.1136582              -3.0928
        80                         -0.0962193              -2.6183
        81                         -0.0493298              -1.3423
        82                          0.0084173               0.2290
        83                          0.0093820               0.2553
        84                          0.0280107               0.7622
        85                          0.0290864               0.7915
        86                          0.0570758               1.5531
       ...                                ...                  ...
       144                          0.6943237              18.8935
      -------------------------------------------------------------
                  HL-Gap            0.1133232 Eh            3.0837 eV

     #   Z          covCN         q      C6AA      α(0)
     1   6 C        3.755    -0.117    22.792     6.807
     2   6 C        3.859     0.129    18.447     6.108
     3   8 O        1.638    -0.376    20.395     6.096
     4   6 C        3.755    -0.116    22.777     6.805
     5   6 C        3.859     0.129    18.448     6.108
     6   6 C        3.755    -0.118    22.807     6.809
     7   6 C        3.755    -0.116    22.770     6.804
     8   8 O        1.638    -0.373    20.343     6.088
     9   5 B        2.659     0.435    15.530     6.635
    10   6 C        3.466    -0.070    24.158     7.386
    11   6 C        2.892    -0.053    29.318     8.877
    12   6 C        3.686    -0.016    21.061     6.570
    13   1 H        0.925     0.029     2.595     2.519
    14   6 C        3.865    -0.014    20.782     6.483
    15   1 H        0.925     0.045     2.385     2.415
    16   6 C        2.863    -0.083    30.082     8.990
    17   5 B        2.662     0.432    15.556     6.639
    18   8 O        1.638    -0.372    20.329     6.086
    19   6 C        3.860     0.129    18.455     6.109
    20   6 C        3.755    -0.117    22.799     6.808
    21   6 C        3.755    -0.116    22.779     6.805
    22   6 C        3.860     0.129    18.455     6.109
    23   6 C        3.755    -0.116    22.785     6.806
    24   6 C        3.755    -0.118    22.806     6.809
    25   8 O        1.638    -0.370    20.292     6.081
    26   6 C        2.896    -0.026    28.651     8.776
    27   6 C        3.863    -0.013    20.768     6.481
    28   1 H        0.925     0.044     2.398     2.422
    29   6 C        3.494    -0.016    22.602     7.070
    30   6 C        2.888    -0.058    29.452     8.897
    31   6 C        3.689    -0.013    20.999     6.559
    32   1 H        0.925     0.030     2.591     2.517
    33   1 H        0.925     0.054     2.268     2.355
    34   1 H        0.925     0.040     2.454     2.450
    35   1 H        0.925     0.051     2.304     2.374
    36   1 H        0.925     0.052     2.294     2.368
    37   1 H        0.925     0.044     2.400     2.422
    38   1 H        0.925     0.042     2.418     2.432
    39   1 H        0.925     0.040     2.449     2.447
    40   1 H        0.925     0.052     2.292     2.367
    41   1 H        0.925     0.055     2.264     2.353
    42   1 H        0.925     0.043     2.415     2.430
    43   1 H        0.925     0.052     2.292     2.368
    44   1 H        0.925     0.043     2.408     2.427
    45   1 H        0.925     0.031     2.572     2.508
    46   1 H        0.925     0.054     2.269     2.356
    47   1 H        0.925     0.040     2.453     2.449
    48   1 H        0.925     0.052     2.295     2.369
    49   1 H        0.925     0.052     2.296     2.370
    50   1 H        0.925     0.044     2.398     2.422
    51   1 H        0.925     0.042     2.417     2.431
    52   1 H        0.925     0.043     2.413     2.429
    53   1 H        0.925     0.053     2.288     2.366
    54   1 H        0.925     0.044     2.397     2.421
    55   1 H        0.925     0.040     2.450     2.448
    56   1 H        0.925     0.052     2.293     2.368
    57   1 H        0.925     0.055     2.264     2.353
    58   1 H        0.925     0.038     2.477     2.461
    59   1 H        0.926     0.031     2.571     2.507
    60   1 H        0.925     0.019     2.741     2.589

Wiberg/Mayer (AO) data.
largest (>0.10) Wiberg bond orders for each atom

     #   Z sym  total        # sym  WBO       # sym  WBO       # sym  WBO
 ---------------------------------------------------------------------------
     1   6 C    3.994 --     2 C    0.997    34 H    0.984    33 H    0.983
                            35 H    0.982
     2   6 C    3.943 --     1 C    0.997     4 C    0.991     3 O    0.953
                             5 C    0.936
     3   8 O    2.225 --     9 B    1.122     2 C    0.953
     4   6 C    3.994 --     2 C    0.991    38 H    0.984    37 H    0.984
                            36 H    0.983
     5   6 C    3.942 --     6 C    0.997     7 C    0.991     8 O    0.952
                             2 C    0.936
     6   6 C    3.994 --     5 C    0.997    39 H    0.984    41 H    0.983
                            40 H    0.982
     7   6 C    3.995 --     5 C    0.991    42 H    0.984    44 H    0.984
                            43 H    0.983
     8   8 O    2.229 --     9 B    1.128     5 C    0.952
     9   5 B    3.380 --     8 O    1.128     3 O    1.122    10 C    1.008
    10   6 C    3.946 --    11 C    1.456     9 B    1.008    27 C    0.922
                            29 C    0.342
    11   6 C    3.986 --    10 C    1.456    12 C    1.369    45 H    0.963
    12   6 C    3.953 --    11 C    1.369    13 H    0.973    14 C    0.936
                            31 C    0.509
    13   1 H    0.999 --    12 C    0.973
    14   6 C    3.974 --    16 C    1.010    15 H    0.968    31 C    0.949
                            12 C    0.936
    15   1 H    0.998 --    14 C    0.968
    16   6 C    3.978 --    26 C    1.838    14 C    1.010    17 B    0.999
    17   5 B    3.376 --    25 O    1.132    18 O    1.127    16 C    0.999
    18   8 O    2.233 --    17 B    1.127    19 C    0.953
    19   6 C    3.943 --    20 C    0.997    21 C    0.991    18 O    0.953
                            22 C    0.937
    20   6 C    3.994 --    19 C    0.997    47 H    0.984    46 H    0.983
                            48 H    0.982
    21   6 C    3.994 --    19 C    0.991    51 H    0.984    50 H    0.984
                            49 H    0.983
    22   6 C    3.942 --    24 C    0.996    23 C    0.991    25 O    0.953
                            19 C    0.937
    23   6 C    3.995 --    22 C    0.991    52 H    0.984    54 H    0.984
                            53 H    0.983
    24   6 C    3.994 --    22 C    0.996    55 H    0.984    57 H    0.983
                            56 H    0.982
    25   8 O    2.235 --    17 B    1.132    22 C    0.953
    26   6 C    3.988 --    16 C    1.838    27 C    1.024    58 H    0.966
    27   6 C    3.981 --    26 C    1.024    28 H    0.969    29 C    0.957
                            10 C    0.922
    28   1 H    0.998 --    27 C    0.969
    29   6 C    3.961 --    30 C    1.504    59 H    0.972    27 C    0.957
                            10 C    0.342
    30   6 C    3.981 --    29 C    1.504    31 C    1.344    60 H    0.965
    31   6 C    3.944 --    30 C    1.344    32 H    0.974    14 C    0.949
                            12 C    0.509
    32   1 H    0.999 --    31 C    0.974
    33   1 H    0.997 --     1 C    0.983
    34   1 H    0.998 --     1 C    0.984
    35   1 H    0.997 --     1 C    0.982
    36   1 H    0.997 --     4 C    0.983
    37   1 H    0.998 --     4 C    0.984
    38   1 H    0.998 --     4 C    0.984
    39   1 H    0.998 --     6 C    0.984
    40   1 H    0.997 --     6 C    0.982
    41   1 H    0.997 --     6 C    0.983
    42   1 H    0.998 --     7 C    0.984
    43   1 H    0.997 --     7 C    0.983
    44   1 H    0.998 --     7 C    0.984
    45   1 H    0.999 --    11 C    0.963
    46   1 H    0.997 --    20 C    0.983
    47   1 H    0.998 --    20 C    0.984
    48   1 H    0.997 --    20 C    0.982
    49   1 H    0.997 --    21 C    0.983
    50   1 H    0.998 --    21 C    0.984
    51   1 H    0.998 --    21 C    0.984
    52   1 H    0.998 --    23 C    0.984
    53   1 H    0.997 --    23 C    0.983
    54   1 H    0.998 --    23 C    0.984
    55   1 H    0.998 --    24 C    0.984
    56   1 H    0.997 --    24 C    0.982
    57   1 H    0.997 --    24 C    0.983
    58   1 H    0.998 --    26 C    0.966
    59   1 H    0.999 --    29 C    0.972
    60   1 H    0.999 --    30 C    0.965
 ---------------------------------------------------------------------------

molecular dipole:
                 x           y           z       tot (Debye)
 q only:       -0.257      -0.411       0.112
   full:       -0.116      -0.474       0.022       1.241

           -------------------------------------------------
          | TOTAL ENERGY              -82.299857682285 Eh   |
          | GRADIENT NORM               0.000319142943 Eh/α |
          | HOMO-LUMO GAP               3.083682231204 eV   |
           -------------------------------------------------

 * finished run on 2022/07/09 at 18:33:20.214
