   * xtb version 6.5.0 (homebrew) compiled by 'nhattrup@GPGGRP-SHANNON.CHEME.CMU.EDU' on
          program call               : /opt/homebrew/bin/xtb bvl_bpin2_scan_8-8_xtb.xyz --chrg 0 --uhf 0 --opt --input xcontrol_bvl_bpin2_scan_8-8_xtb

   ID    Z sym.   atoms
    1    6 C      1, 2, 4-7, 10-12, 14, 16, 19-24, 26, 27, 29-31
    2    8 O      3, 8, 18, 25
    3    5 B      9, 17
    4    1 H      13, 15, 28, 32-60
constraining bond 12 31 to    2.3889000 Å, actual value:    2.2789899 Å
constraining bond 10 29 to    1.6111000 Å, actual value:    1.7176185 Å

          :  Hamiltonian                  GFN2-xTB          :
 * total energy  :   -82.1456325 Eh     change       -0.1422308E-08 Eh
 * total energy  :   -82.2713347 Eh     change       -0.1257023E+00 Eh
 * total energy  :   -82.3179791 Eh     change       -0.4664438E-01 Eh
 * total energy  :   -82.3185682 Eh     change       -0.5891445E-03 Eh
 * total energy  :   -82.3189743 Eh     change       -0.4060155E-03 Eh
 * total energy  :   -82.3159893 Eh     change        0.2984983E-02 Eh
 * total energy  :   -82.3194955 Eh     change       -0.3506179E-02 Eh
 * total energy  :   -82.3196946 Eh     change       -0.1991810E-03 Eh
 * total energy  :   -82.3199172 Eh     change       -0.2225264E-03 Eh
 * total energy  :   -82.3203420 Eh     change       -0.4248360E-03 Eh
 * total energy  :   -82.3207775 Eh     change       -0.1115844E-04 Eh
 * total energy  :   -82.3207832 Eh     change       -0.5715343E-05 Eh
 * total energy  :   -82.3207893 Eh     change       -0.6058085E-05 Eh
 * total energy  :   -82.3207967 Eh     change       -0.7365140E-05 Eh
 * total energy  :   -82.3208028 Eh     change       -0.6100243E-05 Eh
 * total energy  :   -82.3208123 Eh     change       -0.9495973E-05 Eh
 * total energy  :   -82.3208216 Eh     change       -0.9387170E-05 Eh
 * total energy  :   -82.3208303 Eh     change       -0.8637853E-05 Eh
 * total energy  :   -82.3208351 Eh     change       -0.4792196E-05 Eh
   *** GEOMETRY OPTIMIZATION CONVERGED AFTER 37 ITERATIONS ***

 final structure:
================
60
 xtb: 6.5.0 (homebrew)
C            3.62017836337429      -37.66291246934084       15.81007217785221
C            3.78190256927714      -38.07758821600300       17.27043750224255
O            3.31762603052823      -37.02686816049446       18.11938828653509
C            2.89486975636445      -39.29757064560003       17.54849647980086
C            5.26729292772544      -38.28295040945708       17.74139775836565
C            5.72172785897269      -39.73765678277004       17.82831961056575
C            6.27463968842008      -37.49006191835583       16.89957568898840
O            5.27344187473961      -37.70541086549184       19.04808784537466
B            4.16771161385125      -36.91809856911571       19.18639047636080
C            3.89460698141601      -35.99651195443263       20.41806651579376
C            4.89193317561157      -36.01972050124041       21.48973265769786
C            4.89030492010511      -35.32139932382132       22.62240166583827
H            5.72144717422635      -35.44632415331027       23.30422046432904
C            3.83867645425145      -34.33628898499982       23.03647039922131
H            4.08341592430487      -33.93507943627387       24.02141204661051
C            2.47279581669951      -34.98149975537933       23.12803480468372
B            1.74226547155240      -34.95374979119449       24.50389169434557
O            2.26493804376663      -34.38733556423119       25.63432875593338
C            1.40534398032649      -34.67847592040089       26.73459854369750
C            1.28352534791809      -33.44567857577115       27.62743809026466
C            2.06706351255648      -35.81121569351315       27.52990374977081
C            0.07108299588421      -35.12428794956296       26.03356408199247
C           -0.92995290923576      -33.97290667047334       25.87210519587672
C           -0.63422384872841      -36.31124443801154       26.68569222896970
O            0.50071524375053      -35.48593859178108       24.72176418838159
C            1.89799843935582      -35.57578552109289       22.07468528975391
C            2.42079346471426      -35.68805161741589       20.71321316974730
H            1.74485399007499      -36.20189976058967       20.03871195522963
C            3.20707413070561      -34.58989284446980       20.05078856474147
C            3.62649860107716      -33.37150070016931       20.72620250675141
C            3.89357836344898      -33.23383583872743       22.02336355621453
H            4.20830144793712      -32.26393295831063       22.38585596077609
H            2.56049058049620      -37.57032857404071       15.58515873967340
H            4.05367884939998      -38.41513270296371       15.15677994281882
H            4.08960573778056      -36.70324970158587       15.61935269452050
H            1.86008525026262      -39.02362897652979       17.35541022073706
H            2.97564165484002      -39.59070192341314       18.59235929155068
H            3.16439884587205      -40.13269544611072       16.90918900651890
H            5.64101953517696      -40.21561602218544       16.85583629066550
H            5.13419931997190      -40.28973861068376       18.55458882269050
H            6.76057199041958      -39.76220431194631       18.14781431314794
H            6.35776306272532      -37.90047444103790       15.89775579231741
H            7.24621915788301      -37.54125415303954       17.38557957922405
H            5.98130566939599      -36.44457177412702       16.84684124755313
H            5.72258341252060      -36.68349778302207       21.28508770793956
H            2.25194014580229      -33.23822130784061       28.07603591199536
H            0.56076542127910      -33.62517442476432       28.41882752079112
H            0.98497915504708      -32.57394324358794       27.05428170433391
H            3.05559414970399      -35.48243762668998       27.84258812616491
H            2.18888915540191      -36.68960140756553       26.90093755726180
H            1.48434478874697      -36.06573692352850       28.41015933472694
H           -1.33835003176839      -33.66888643920596       26.83127545993448
H           -1.74172446405604      -34.31000980764244       25.23161716685956
H           -0.45209573405186      -33.12474811088506       25.38823183437768
H           -0.88848134690421      -36.07733549996213       27.71601196342695
H           -0.01317519109731      -37.20058187377987       26.65761504659576
H           -1.54862927184428      -36.52180983527506       26.13666000645191
H            0.92637632228099      -36.02858783822897       22.22877407905708
H            3.02384311587123      -34.48333317902777       18.99021400772440
H            3.73944331388532      -32.51176347950812       20.07618471823141

          :  Hamiltonian                  GFN2-xTB          :
         :: total energy             -82.320835077279 Eh    ::
         :: gradient norm              0.000436346561 Eh/a0 ::
         :: HOMO-LUMO gap              3.394019564513 eV    ::
         :: SCC energy               -83.401891977493 Eh    ::
         :: -> dispersion             -0.061962969400 Eh    ::
         :: repulsion energy           1.080325708253 Eh    ::

    * Orbital Energies and Occupations

         #    Occupation            Energy/Eh            Energy/eV
      -------------------------------------------------------------
         1        2.0000           -0.6926958             -18.8492
       ...           ...                  ...                  ...
        63        2.0000           -0.4348330             -11.8324
        64        2.0000           -0.4340032             -11.8098
        65        2.0000           -0.4310262             -11.7288
        66        2.0000           -0.4233096             -11.5188
        67        2.0000           -0.4186943             -11.3933
        68        2.0000           -0.4124719             -11.2239
        69        2.0000           -0.4024733             -10.9519
        70        2.0000           -0.4005234             -10.8988
        71        2.0000           -0.3978517             -10.8261
        72        2.0000           -0.3951400             -10.7523
        73        2.0000           -0.3875545             -10.5459
        74        2.0000           -0.3531151              -9.6088
        75        2.0000           -0.3485909              -9.4856 (HOMO)
        76                         -0.2238630              -6.0916 (LUMO)
        77                         -0.1951691              -5.3108
        78                         -0.1834626              -4.9923
        79                         -0.1455458              -3.9605
        80                         -0.0944236              -2.5694
        81                          0.0031132               0.0847
        82                          0.0080753               0.2197
        83                          0.0113810               0.3097
        84                          0.0250233               0.6809
        85                          0.0305620               0.8316
        86                          0.0533701               1.4523
       ...                                ...                  ...
       144                          0.6752733              18.3751
      -------------------------------------------------------------
                  HL-Gap            0.1247279 Eh            3.3940 eV

     #   Z          covCN         q      C6AA      α(0)
     1   6 C        3.755    -0.117    22.803     6.809
     2   6 C        3.860     0.130    18.441     6.107
     3   8 O        1.638    -0.379    20.452     6.104
     4   6 C        3.755    -0.116    22.783     6.806
     5   6 C        3.860     0.129    18.449     6.108
     6   6 C        3.755    -0.118    22.813     6.810
     7   6 C        3.755    -0.116    22.784     6.806
     8   8 O        1.638    -0.371    20.307     6.083
     9   5 B        2.659     0.440    15.470     6.622
    10   6 C        3.820    -0.064    21.712     6.631
    11   6 C        2.890    -0.042    29.052     8.837
    12   6 C        2.910    -0.036    28.897     8.815
    13   1 H        0.925     0.024     2.678     2.559
    14   6 C        3.866    -0.016    20.819     6.488
    15   1 H        0.924     0.043     2.408     2.427
    16   6 C        2.869    -0.083    30.078     8.990
    17   5 B        2.662     0.432    15.556     6.639
    18   8 O        1.638    -0.371    20.297     6.081
    19   6 C        3.860     0.129    18.454     6.109
    20   6 C        3.755    -0.117    22.793     6.807
    21   6 C        3.755    -0.116    22.770     6.804
    22   6 C        3.860     0.129    18.450     6.109
    23   6 C        3.755    -0.116    22.777     6.805
    24   6 C        3.755    -0.117    22.799     6.808
    25   8 O        1.638    -0.374    20.353     6.090
    26   6 C        2.895    -0.029    28.722     8.787
    27   6 C        3.860    -0.009    20.700     6.470
    28   1 H        0.925     0.040     2.449     2.447
    29   6 C        3.849    -0.013    20.770     6.482
    30   6 C        2.889    -0.038    28.940     8.820
    31   6 C        2.910    -0.033    28.824     8.804
    32   1 H        0.925     0.025     2.663     2.552
    33   1 H        0.925     0.055     2.261     2.351
    34   1 H        0.925     0.041     2.442     2.444
    35   1 H        0.925     0.052     2.294     2.368
    36   1 H        0.925     0.052     2.291     2.367
    37   1 H        0.925     0.044     2.397     2.421
    38   1 H        0.925     0.043     2.406     2.426
    39   1 H        0.925     0.041     2.440     2.443
    40   1 H        0.925     0.053     2.286     2.364
    41   1 H        0.925     0.055     2.252     2.347
    42   1 H        0.925     0.043     2.404     2.424
    43   1 H        0.925     0.053     2.278     2.360
    44   1 H        0.925     0.044     2.400     2.423
    45   1 H        0.925     0.033     2.541     2.493
    46   1 H        0.925     0.054     2.271     2.356
    47   1 H        0.925     0.039     2.460     2.453
    48   1 H        0.925     0.052     2.298     2.371
    49   1 H        0.925     0.052     2.297     2.370
    50   1 H        0.925     0.043     2.404     2.425
    51   1 H        0.925     0.042     2.424     2.435
    52   1 H        0.925     0.042     2.419     2.432
    53   1 H        0.925     0.052     2.297     2.370
    54   1 H        0.925     0.043     2.403     2.424
    55   1 H        0.925     0.039     2.456     2.451
    56   1 H        0.925     0.052     2.297     2.370
    57   1 H        0.925     0.054     2.271     2.357
    58   1 H        0.925     0.036     2.504     2.475
    59   1 H        0.925     0.037     2.492     2.468
    60   1 H        0.925     0.024     2.675     2.558

Wiberg/Mayer (AO) data.
largest (>0.10) Wiberg bond orders for each atom

     #   Z sym  total        # sym  WBO       # sym  WBO       # sym  WBO
 ---------------------------------------------------------------------------
     1   6 C    3.994 --     2 C    0.997    34 H    0.984    33 H    0.982
                            35 H    0.982
     2   6 C    3.942 --     1 C    0.997     4 C    0.991     3 O    0.951
                             5 C    0.937
     3   8 O    2.224 --     9 B    1.124     2 C    0.951
     4   6 C    3.994 --     2 C    0.991    38 H    0.984    37 H    0.984
                            36 H    0.983
     5   6 C    3.941 --     6 C    0.997     7 C    0.991     8 O    0.949
                             2 C    0.937
     6   6 C    3.994 --     5 C    0.997    39 H    0.984    41 H    0.982
                            40 H    0.982
     7   6 C    3.995 --     5 C    0.991    42 H    0.984    44 H    0.984
                            43 H    0.983
     8   8 O    2.234 --     9 B    1.136     5 C    0.949
     9   5 B    3.378 --     8 O    1.136     3 O    1.124    10 C    1.001
    10   6 C    3.924 --    11 C    1.085     9 B    1.001    27 C    0.862
                            29 C    0.801
    11   6 C    3.990 --    12 C    1.853    10 C    1.085    45 H    0.963
    12   6 C    3.989 --    11 C    1.853    14 C    0.983    13 H    0.968
    13   1 H    0.999 --    12 C    0.968
    14   6 C    3.996 --    31 C    0.986    12 C    0.983    16 C    0.974
                            15 H    0.972
    15   1 H    0.998 --    14 C    0.972
    16   6 C    3.975 --    26 C    1.804    17 B    1.004    14 C    0.974
    17   5 B    3.375 --    18 O    1.127    25 O    1.126    16 C    1.004
    18   8 O    2.233 --    17 B    1.127    19 C    0.954
    19   6 C    3.944 --    20 C    0.997    21 C    0.990    18 O    0.954
                            22 C    0.937
    20   6 C    3.994 --    19 C    0.997    47 H    0.985    46 H    0.983
                            48 H    0.982
    21   6 C    3.994 --    19 C    0.990    51 H    0.985    50 H    0.984
                            49 H    0.983
    22   6 C    3.943 --    24 C    0.996    23 C    0.990    25 O    0.953
                            19 C    0.937
    23   6 C    3.995 --    22 C    0.990    52 H    0.985    54 H    0.984
                            53 H    0.983
    24   6 C    3.994 --    22 C    0.996    55 H    0.985    57 H    0.983
                            56 H    0.982
    25   8 O    2.230 --    17 B    1.126    22 C    0.953
    26   6 C    3.988 --    16 C    1.804    27 C    1.077    58 H    0.965
    27   6 C    3.959 --    26 C    1.077    28 H    0.969    29 C    0.920
                            10 C    0.862
    28   1 H    0.998 --    27 C    0.969
    29   6 C    3.945 --    30 C    1.098    59 H    0.972    27 C    0.920
                            10 C    0.801
    30   6 C    3.990 --    31 C    1.842    29 C    1.098    60 H    0.966
    31   6 C    3.986 --    30 C    1.842    14 C    0.986    32 H    0.969
    32   1 H    0.999 --    31 C    0.969
    33   1 H    0.997 --     1 C    0.982
    34   1 H    0.998 --     1 C    0.984
    35   1 H    0.997 --     1 C    0.982
    36   1 H    0.997 --     4 C    0.983
    37   1 H    0.998 --     4 C    0.984
    38   1 H    0.998 --     4 C    0.984
    39   1 H    0.998 --     6 C    0.984
    40   1 H    0.997 --     6 C    0.982
    41   1 H    0.997 --     6 C    0.982
    42   1 H    0.998 --     7 C    0.984
    43   1 H    0.997 --     7 C    0.983
    44   1 H    0.998 --     7 C    0.984
    45   1 H    0.999 --    11 C    0.963
    46   1 H    0.997 --    20 C    0.983
    47   1 H    0.998 --    20 C    0.985
    48   1 H    0.997 --    20 C    0.982
    49   1 H    0.997 --    21 C    0.983
    50   1 H    0.998 --    21 C    0.984
    51   1 H    0.998 --    21 C    0.985
    52   1 H    0.998 --    23 C    0.985
    53   1 H    0.997 --    23 C    0.983
    54   1 H    0.998 --    23 C    0.984
    55   1 H    0.998 --    24 C    0.985
    56   1 H    0.997 --    24 C    0.982
    57   1 H    0.997 --    24 C    0.983
    58   1 H    0.998 --    26 C    0.965
    59   1 H    0.998 --    29 C    0.972
    60   1 H    0.999 --    30 C    0.966
 ---------------------------------------------------------------------------

molecular dipole:
                 x           y           z       tot (Debye)
 q only:       -0.254      -0.492      -0.165
   full:       -0.299      -0.582      -0.211       1.747

           -------------------------------------------------
          | TOTAL ENERGY              -82.320835077279 Eh   |
          | GRADIENT NORM               0.000436346561 Eh/α |
          | HOMO-LUMO GAP               3.394019564513 eV   |
           -------------------------------------------------

 * finished run on 2022/07/09 at 18:33:44.611
