   * xtb version 6.5.0 (homebrew) compiled by 'nhattrup@GPGGRP-SHANNON.CHEME.CMU.EDU' on
          program call               : /opt/homebrew/bin/xtb bvl_bpin2_scan_9-9_xtb.xyz --chrg 0 --uhf 0 --opt --input xcontrol_bvl_bpin2_scan_9-9_xtb

   ID    Z sym.   atoms
    1    6 C      1, 2, 4-7, 10-12, 14, 16, 19-24, 26, 27, 29-31
    2    8 O      3, 8, 18, 25
    3    5 B      9, 17
    4    1 H      13, 15, 28, 32-60
constraining bond 12 31 to    2.5000000 Å, actual value:    2.3896040 Å
constraining bond 10 29 to    1.5000000 Å, actual value:    1.6081624 Å

          :  Hamiltonian                  GFN2-xTB          :
 * total energy  :   -82.1503008 Eh     change       -0.1276035E-08 Eh
 * total energy  :   -82.2693263 Eh     change       -0.1190255E+00 Eh
 * total energy  :   -82.3198000 Eh     change       -0.5047368E-01 Eh
 * total energy  :   -82.3203613 Eh     change       -0.5613719E-03 Eh
 * total energy  :   -82.3208089 Eh     change       -0.4475710E-03 Eh
 * total energy  :   -82.3179603 Eh     change        0.2848575E-02 Eh
 * total energy  :   -82.3212191 Eh     change       -0.3258742E-02 Eh
 * total energy  :   -82.3213987 Eh     change       -0.1796569E-03 Eh
 * total energy  :   -82.3218028 Eh     change       -0.4040537E-03 Eh
 * total energy  :   -82.3220072 Eh     change       -0.2043754E-03 Eh
 * total energy  :   -82.3224118 Eh     change       -0.6284548E-05 Eh
 * total energy  :   -82.3224160 Eh     change       -0.4142661E-05 Eh
 * total energy  :   -82.3224283 Eh     change       -0.1235079E-04 Eh
 * total energy  :   -82.3224368 Eh     change       -0.8492611E-05 Eh
 * total energy  :   -82.3224415 Eh     change       -0.4646934E-05 Eh
 * total energy  :   -82.3224498 Eh     change       -0.8349986E-05 Eh
 * total energy  :   -82.3224572 Eh     change       -0.7417848E-05 Eh
 * total energy  :   -82.3224634 Eh     change       -0.6133890E-05 Eh
 * total energy  :   -82.3224679 Eh     change       -0.4561191E-05 Eh
   *** GEOMETRY OPTIMIZATION CONVERGED AFTER 28 ITERATIONS ***

 final structure:
================
60
 xtb: 6.5.0 (homebrew)
C            3.65576962600353      -37.65800466199809       15.79278437965165
C            3.79784353163552      -38.05171721939159       17.26043373824370
O            3.35491051458423      -36.97561566077455       18.08983040885379
C            2.88002670946552      -39.24469147236512       17.55475147680209
C            5.27266897513003      -38.28543196231814       17.74737343715395
C            5.69893667374151      -39.74802921013232       17.83780165654002
C            6.30179973859189      -37.50912225984121       16.91685257910093
O            5.27309553307138      -37.70611784840914       19.05448779894980
B            4.19075998372616      -36.88458904847848       19.16906156952448
C            3.91728049710091      -35.93329125372905       20.38858632860818
C            4.87795104431538      -36.05188503314390       21.50075792683842
C            4.86828303592862      -35.38169589912000       22.64663572564162
H            5.63088293806168      -35.58997036820610       23.38426628957276
C            3.84984213579088      -34.33683365528636       23.02188943094640
H            4.09863671822784      -33.93464292307164       24.00563963886885
C            2.48341116342201      -34.98944456690028       23.11848560197357
B            1.75198896891643      -34.95751501403301       24.49235819378791
O            2.27508683165321      -34.37862394832703       25.61698989796285
C            1.42348434583756      -34.67090033327861       26.72274968998519
C            1.29998067947242      -33.43661159713777       27.61315573929637
C            2.09596210984431      -35.79849975305595       27.51646480769790
C            0.08813536799274      -35.12620043847980       26.03070451331499
C           -0.91806047110415      -33.97965900056089       25.86668363753280
C           -0.61039120578825      -36.31055159667119       26.69484270560993
O            0.51398257199060      -35.49542067024701       24.71944027845459
C            1.91206374073335      -35.58730436461519       22.06110112135969
C            2.42579346576967      -35.70062077535115       20.70275673459025
H            1.75812656890765      -36.21621122476603       20.02353770783426
C            3.26314032455644      -34.62412508423854       20.05143679054289
C            3.56100956492359      -33.36003669656019       20.73271551261011
C            3.80432838519419      -33.20581038232842       22.02906804819229
H            3.98648965505315      -32.21436899178983       22.41976873147734
H            2.60030472500783      -37.53869942779764       15.56079423350769
H            4.07047176887275      -38.43393638064968       15.15511374660602
H            4.15386709157185      -36.71597371855379       15.58792832197757
H            1.85247418938610      -38.94734778851632       17.35781535111960
H            2.95401215307673      -39.52540648167408       18.60255933245639
H            3.12827706016211      -40.09511380715390       16.92711972846973
H            5.60973726245826      -40.22561061696509       16.86582082544810
H            5.09945152826161      -40.28738663455081       18.56386275177481
H            6.73677838710341      -39.79299604203108       18.15821512726956
H            6.39076225345569      -37.92239115774098       15.91667957318745
H            7.26659888612436      -37.57330314811485       17.41456054251248
H            6.02365975537106      -36.45965119201373       16.85928290645913
H            5.64796582531538      -36.79292418900513       21.32846709618608
H            2.26965411458521      -33.22295435209733       28.05608516269472
H            0.58235111858328      -33.61789577706732       28.40882196221141
H            0.99375737488120      -32.56790049973397       27.03940241183274
H            3.08563966225764      -35.46478467666283       27.82011933660769
H            2.21626193864029      -36.67795829053565       26.88865933362858
H            1.52134370102631      -36.05297785351458       28.40201075772452
H           -1.32247281787981      -33.67143613910747       26.82624608583992
H           -1.73211817533819      -34.32378713520475       25.23283327896476
H           -0.44611756779550      -33.13254013804238       25.37531477372952
H           -0.86230892819881      -36.06826918066094       27.72390507257177
H            0.01378960325759      -37.19783020089820       26.67294001352040
H           -1.52575722865124      -36.52934100873554       26.15063984406072
H            0.94085597833035      -36.04100700343319       22.21665715563046
H            3.06212609519079      -34.49718062250784       18.99303692499530
H            3.54913452219332      -32.48680362242351       20.09148625149415

          :  Hamiltonian                  GFN2-xTB          :
         :: total energy             -82.322467943180 Eh    ::
         :: gradient norm              0.000493477424 Eh/a0 ::
         :: HOMO-LUMO gap              3.491872512894 eV    ::
         :: SCC energy               -83.406939924227 Eh    ::
         :: -> dispersion             -0.062113005548 Eh    ::
         :: repulsion energy           1.083776251030 Eh    ::

    * Orbital Energies and Occupations

         #    Occupation            Energy/Eh            Energy/eV
      -------------------------------------------------------------
         1        2.0000           -0.6939690             -18.8839
       ...           ...                  ...                  ...
        63        2.0000           -0.4356424             -11.8544
        64        2.0000           -0.4349127             -11.8346
        65        2.0000           -0.4323423             -11.7646
        66        2.0000           -0.4242768             -11.5452
        67        2.0000           -0.4184287             -11.3860
        68        2.0000           -0.4110370             -11.1849
        69        2.0000           -0.4028748             -10.9628
        70        2.0000           -0.3996893             -10.8761
        71        2.0000           -0.3976239             -10.8199
        72        2.0000           -0.3947710             -10.7423
        73        2.0000           -0.3875367             -10.5454
        74        2.0000           -0.3529230              -9.6035
        75        2.0000           -0.3502666              -9.5312 (HOMO)
        76                         -0.2219426              -6.0394 (LUMO)
        77                         -0.1926147              -5.2413
        78                         -0.1829883              -4.9794
        79                         -0.1490686              -4.0564
        80                         -0.0931327              -2.5343
        81                          0.0006302               0.0171
        82                          0.0121474               0.3305
        83                          0.0196776               0.5355
        84                          0.0282134               0.7677
        85                          0.0312356               0.8500
        86                          0.0527400               1.4351
       ...                                ...                  ...
       144                          0.6700202              18.2322
      -------------------------------------------------------------
                  HL-Gap            0.1283240 Eh            3.4919 eV

     #   Z          covCN         q      C6AA      α(0)
     1   6 C        3.755    -0.118    22.808     6.810
     2   6 C        3.861     0.130    18.439     6.107
     3   8 O        1.638    -0.378    20.446     6.104
     4   6 C        3.755    -0.116    22.785     6.806
     5   6 C        3.862     0.129    18.449     6.108
     6   6 C        3.755    -0.118    22.816     6.811
     7   6 C        3.755    -0.117    22.790     6.807
     8   8 O        1.638    -0.370    20.290     6.080
     9   5 B        2.661     0.441    15.446     6.615
    10   6 C        3.833    -0.059    21.610     6.614
    11   6 C        2.891    -0.043    29.062     8.839
    12   6 C        2.897    -0.036    28.898     8.814
    13   1 H        0.925     0.025     2.664     2.552
    14   6 C        3.865    -0.017    20.841     6.492
    15   1 H        0.924     0.043     2.412     2.429
    16   6 C        2.874    -0.085    30.117     8.996
    17   5 B        2.661     0.432    15.558     6.640
    18   8 O        1.638    -0.371    20.310     6.083
    19   6 C        3.860     0.129    18.452     6.109
    20   6 C        3.755    -0.117    22.791     6.807
    21   6 C        3.755    -0.116    22.768     6.804
    22   6 C        3.860     0.129    18.449     6.108
    23   6 C        3.755    -0.116    22.774     6.805
    24   6 C        3.755    -0.117    22.797     6.808
    25   8 O        1.638    -0.374    20.370     6.092
    26   6 C        2.895    -0.030    28.745     8.790
    27   6 C        3.859    -0.014    20.779     6.483
    28   1 H        0.925     0.038     2.480     2.463
    29   6 C        3.864    -0.008    20.681     6.467
    30   6 C        2.889    -0.038    28.938     8.820
    31   6 C        2.897    -0.034    28.839     8.805
    32   1 H        0.926     0.026     2.651     2.546
    33   1 H        0.925     0.055     2.255     2.348
    34   1 H        0.925     0.041     2.438     2.442
    35   1 H        0.925     0.053     2.288     2.365
    36   1 H        0.925     0.053     2.289     2.366
    37   1 H        0.925     0.044     2.396     2.421
    38   1 H        0.925     0.044     2.402     2.424
    39   1 H        0.925     0.041     2.435     2.440
    40   1 H        0.925     0.053     2.280     2.361
    41   1 H        0.925     0.056     2.249     2.345
    42   1 H        0.925     0.044     2.397     2.421
    43   1 H        0.925     0.054     2.274     2.358
    44   1 H        0.925     0.044     2.397     2.421
    45   1 H        0.925     0.033     2.547     2.496
    46   1 H        0.925     0.054     2.272     2.357
    47   1 H        0.925     0.039     2.463     2.454
    48   1 H        0.925     0.052     2.299     2.371
    49   1 H        0.925     0.052     2.299     2.371
    50   1 H        0.925     0.043     2.406     2.426
    51   1 H        0.925     0.042     2.427     2.436
    52   1 H        0.925     0.042     2.421     2.433
    53   1 H        0.925     0.052     2.300     2.371
    54   1 H        0.925     0.043     2.404     2.425
    55   1 H        0.925     0.039     2.457     2.451
    56   1 H        0.925     0.052     2.299     2.371
    57   1 H        0.925     0.054     2.273     2.358
    58   1 H        0.925     0.035     2.514     2.479
    59   1 H        0.925     0.035     2.511     2.478
    60   1 H        0.925     0.024     2.680     2.560

Wiberg/Mayer (AO) data.
largest (>0.10) Wiberg bond orders for each atom

     #   Z sym  total        # sym  WBO       # sym  WBO       # sym  WBO
 ---------------------------------------------------------------------------
     1   6 C    3.994 --     2 C    0.997    34 H    0.984    33 H    0.982
                            35 H    0.982
     2   6 C    3.942 --     1 C    0.997     4 C    0.991     3 O    0.949
                             5 C    0.938
     3   8 O    2.225 --     9 B    1.128     2 C    0.949
     4   6 C    3.995 --     2 C    0.991    38 H    0.984    37 H    0.984
                            36 H    0.983
     5   6 C    3.941 --     6 C    0.997     7 C    0.991     8 O    0.948
                             2 C    0.938
     6   6 C    3.994 --     5 C    0.997    39 H    0.984    41 H    0.982
                            40 H    0.982
     7   6 C    3.995 --     5 C    0.991    42 H    0.984    44 H    0.984
                            43 H    0.983
     8   8 O    2.237 --     9 B    1.141     5 C    0.948
     9   5 B    3.374 --     8 O    1.141     3 O    1.128    10 C    0.989
    10   6 C    3.930 --    11 C    1.059     9 B    0.989    29 C    0.882
                            27 C    0.837
    11   6 C    3.990 --    12 C    1.878    10 C    1.059    45 H    0.964
    12   6 C    3.989 --    11 C    1.878    14 C    0.986    13 H    0.968
    13   1 H    0.999 --    12 C    0.968
    14   6 C    3.996 --    31 C    0.988    12 C    0.986    15 H    0.972
                            16 C    0.967
    15   1 H    0.998 --    14 C    0.972
    16   6 C    3.974 --    26 C    1.782    17 B    1.006    14 C    0.967
    17   5 B    3.376 --    18 O    1.125    25 O    1.124    16 C    1.006
    18   8 O    2.232 --    17 B    1.125    19 C    0.954
    19   6 C    3.944 --    20 C    0.997    21 C    0.990    18 O    0.954
                            22 C    0.937
    20   6 C    3.994 --    19 C    0.997    47 H    0.985    46 H    0.983
                            48 H    0.982
    21   6 C    3.994 --    19 C    0.990    51 H    0.985    50 H    0.984
                            49 H    0.983
    22   6 C    3.943 --    24 C    0.996    23 C    0.990    25 O    0.953
                            19 C    0.937
    23   6 C    3.995 --    22 C    0.990    52 H    0.985    54 H    0.984
                            53 H    0.983
    24   6 C    3.994 --    22 C    0.996    55 H    0.985    57 H    0.983
                            56 H    0.982
    25   8 O    2.228 --    17 B    1.124    22 C    0.953
    26   6 C    3.989 --    16 C    1.782    27 C    1.100    58 H    0.964
    27   6 C    3.946 --    26 C    1.100    28 H    0.971    29 C    0.894
                            10 C    0.837
    28   1 H    0.998 --    27 C    0.971
    29   6 C    3.950 --    30 C    1.068    59 H    0.970    27 C    0.894
                            10 C    0.882
    30   6 C    3.990 --    31 C    1.872    29 C    1.068    60 H    0.967
    31   6 C    3.988 --    30 C    1.872    14 C    0.988    32 H    0.969
    32   1 H    0.999 --    31 C    0.969
    33   1 H    0.997 --     1 C    0.982
    34   1 H    0.998 --     1 C    0.984
    35   1 H    0.997 --     1 C    0.982
    36   1 H    0.997 --     4 C    0.983
    37   1 H    0.998 --     4 C    0.984
    38   1 H    0.998 --     4 C    0.984
    39   1 H    0.998 --     6 C    0.984
    40   1 H    0.997 --     6 C    0.982
    41   1 H    0.997 --     6 C    0.982
    42   1 H    0.998 --     7 C    0.984
    43   1 H    0.997 --     7 C    0.983
    44   1 H    0.998 --     7 C    0.984
    45   1 H    0.999 --    11 C    0.964
    46   1 H    0.997 --    20 C    0.983
    47   1 H    0.998 --    20 C    0.985
    48   1 H    0.997 --    20 C    0.982
    49   1 H    0.997 --    21 C    0.983
    50   1 H    0.998 --    21 C    0.984
    51   1 H    0.998 --    21 C    0.985
    52   1 H    0.998 --    23 C    0.985
    53   1 H    0.997 --    23 C    0.983
    54   1 H    0.998 --    23 C    0.984
    55   1 H    0.998 --    24 C    0.985
    56   1 H    0.997 --    24 C    0.982
    57   1 H    0.997 --    24 C    0.983
    58   1 H    0.999 --    26 C    0.964
    59   1 H    0.998 --    29 C    0.970
    60   1 H    0.999 --    30 C    0.967
 ---------------------------------------------------------------------------

molecular dipole:
                 x           y           z       tot (Debye)
 q only:       -0.212      -0.534      -0.227
   full:       -0.316      -0.637      -0.242       1.909

           -------------------------------------------------
          | TOTAL ENERGY              -82.322467943180 Eh   |
          | GRADIENT NORM               0.000493477424 Eh/α |
          | HOMO-LUMO GAP               3.491872512894 eV   |
           -------------------------------------------------

 * finished run on 2022/07/09 at 18:33:47.724
