   * xtb version 6.5.0 (homebrew) compiled by 'nhattrup@GPGGRP-SHANNON.CHEME.CMU.EDU' on
          program call               : /opt/homebrew/bin/xtb bvl_bpin2_scan_1-9_xtb.xyz --chrg 0 --uhf 0 --opt --input xcontrol_bvl_bpin2_scan_1-9_xtb

   ID    Z sym.   atoms
    1    6 C      1, 2, 4-7, 10-12, 14, 16, 19-24, 26, 27, 29-31
    2    8 O      3, 8, 18, 25
    3    5 B      9, 17
    4    1 H      13, 15, 28, 32-60
constraining bond 12 31 to    1.6111000 Å, actual value:    1.5068186 Å
constraining bond 10 29 to    1.5000000 Å, actual value:    1.6149853 Å

          :  Hamiltonian                  GFN2-xTB          :
 * total energy  :   -82.1134960 Eh     change       -0.1573540E-08 Eh
 * total energy  :   -82.2355820 Eh     change       -0.1220860E+00 Eh
 * total energy  :   -82.2837699 Eh     change       -0.4818792E-01 Eh
 * total energy  :   -82.2843169 Eh     change       -0.5469557E-03 Eh
 * total energy  :   -82.2842678 Eh     change        0.4910165E-04 Eh
 * total energy  :   -82.2818931 Eh     change        0.2374639E-02 Eh
 * total energy  :   -82.2846352 Eh     change       -0.2742053E-02 Eh
 * total energy  :   -82.2846760 Eh     change       -0.4082830E-04 Eh
 * total energy  :   -82.2846871 Eh     change       -0.1105417E-04 Eh
 * total energy  :   -82.2847040 Eh     change       -0.1696557E-04 Eh
 * total energy  :   -82.2847073 Eh     change       -0.3308951E-05 Eh
 * total energy  :   -82.2847110 Eh     change       -0.3621520E-05 Eh
 * total energy  :   -82.2847144 Eh     change       -0.3419003E-05 Eh
 * total energy  :   -82.2847210 Eh     change       -0.6564789E-05 Eh
 * total energy  :   -82.2847234 Eh     change       -0.2477944E-05 Eh
   *** GEOMETRY OPTIMIZATION CONVERGED AFTER 15 ITERATIONS ***

 final structure:
================
60
 xtb: 6.5.0 (homebrew)
C            3.48814245667045      -37.73850324342851       15.88854868516696
C            3.72148256990884      -38.12553020780126       17.34694514265714
O            3.25009781455208      -37.07759425918331       18.19615814379337
C            2.89270159025376      -39.37320994654358       17.67489213768769
C            5.23095046110263      -38.26562518134006       17.76360386289377
C            5.73919907253930      -39.70047876222255       17.87418686618900
C            6.17773194709431      -37.46536807808190       16.86083954309006
O            5.26948938064732      -37.64545711034179       19.05169264248395
B            4.14250578942578      -36.89867823301405       19.21393822575975
C            3.89383178077240      -35.90138451171729       20.41266268596111
C            4.92321950904825      -35.87562262815883       21.41163128412451
C            4.97692334451089      -34.89685328544665       22.41328595196805
H            5.91946592383165      -34.84343508160286       22.95164756197053
C            3.81073053607899      -34.28878778160396       23.12876737690514
H            4.06203841287298      -33.89185246698565       24.10560379393813
C            2.46101737779528      -34.91700591418098       23.14195669285476
B            1.70681194089435      -34.91884142429058       24.50425024894304
O            2.20867211966708      -34.38114346300916       25.65991794181462
C            1.33930534240596      -34.72085633723594       26.73859960098520
C            1.18953792116771      -33.52286696050669       27.67363676470505
C            2.00613842881674      -35.87238676043224       27.50232443541740
C            0.01923593346385      -35.15896138632259       26.00656176881733
C           -0.99761524275151      -34.01765664999353       25.87692162285167
C           -0.67538258977775      -36.37933776169400       26.60654575356566
O            0.46757321989460      -35.46824864229576       24.68832323784688
C            1.89708582756546      -35.48531889157976       22.07172001713662
C            2.43160743656501      -35.60276734374530       20.71439917737426
H            1.75889374976633      -36.09909619284109       20.02688629462866
C            3.29106257740592      -34.56682842352100       20.05669866628035
C            3.82705834859800      -33.40792492713393       20.69383380938994
C            4.34381377740817      -33.47077862157364       21.99749014935431
H            4.93193139753852      -32.60868735363251       22.30000406568699
H            2.41781209760011      -37.68187077897106       15.70643016783203
H            3.91788277426455      -38.48670450162533       15.22823840686999
H            3.91879208248081      -36.76778008740505       15.66529981656066
H            1.84183928255296      -39.14237957897657       17.51589411452285
H            3.02206066077647      -39.64798236768557       18.71866434726619
H            3.17174203649466      -40.20633963375269       17.03700476861120
H            5.63806660542302      -40.20842221074887       16.91896952206551
H            5.19971810665769      -40.25073582672699       18.63794358286540
H            6.78962972008193      -39.68019568269847       18.15310332022386
H            6.23099488110132      -37.89773223663671       15.86634990550676
H            7.16976183877285      -37.47721618346526       17.30622967744427
H            5.85220679855788      -36.43015602001769       16.79611269862781
H            5.84988255804325      -36.35850335621019       21.13665368932889
H            2.14992209891908      -33.31676082161860       28.13976515483194
H            0.46203980320862      -33.74277001703869       28.45040892094909
H            0.88246314485470      -32.63562911290944       27.12959745955712
H            2.98746152929842      -35.54315315487258       27.83643280029937
H            2.14494832599901      -36.72725955019632       26.84527112826818
H            1.41738993055618      -36.16322712498825       28.36714130417784
H           -1.41776910299010      -33.75443977251474       26.84302333190049
H           -1.79918918790871      -34.34427824653061       25.21845001370274
H           -0.52922394866254      -33.14581786261579       25.42730559007735
H           -0.94372740539234      -36.18795329816930       27.64199464102182
H           -0.04102080890197      -37.25795400953990       26.55150238283911
H           -1.58050591092997      -36.58189895471819       26.03946887795964
H            0.91599429093066      -35.92225696330168       22.20238349591936
H            3.07323548840750      -34.42575487252083       19.00046091748557
H            4.21598415407067      -32.63478994208333       20.04517581104284

          :  Hamiltonian                  GFN2-xTB          :
         :: total energy             -82.284723430291 Eh    ::
         :: gradient norm              0.000917441747 Eh/a0 ::
         :: HOMO-LUMO gap              1.967755719792 eV    ::
         :: SCC energy               -83.358975152533 Eh    ::
         :: -> dispersion             -0.061096668706 Eh    ::
         :: repulsion energy           1.073189141432 Eh    ::

    * Orbital Energies and Occupations

         #    Occupation            Energy/Eh            Energy/eV
      -------------------------------------------------------------
         1        2.0000           -0.6952878             -18.9197
       ...           ...                  ...                  ...
        63        2.0000           -0.4360756             -11.8662
        64        2.0000           -0.4305081             -11.7147
        65        2.0000           -0.4287892             -11.6679
        66        2.0000           -0.4249644             -11.5639
        67        2.0000           -0.4175553             -11.3623
        68        2.0000           -0.4133199             -11.2470
        69        2.0000           -0.4094352             -11.1413
        70        2.0000           -0.4034451             -10.9783
        71        2.0000           -0.3994793             -10.8704
        72        2.0000           -0.3941965             -10.7266
        73        2.0000           -0.3839300             -10.4473
        74        2.0000           -0.3742229             -10.1831
        75        2.0000           -0.3046312              -8.2894 (HOMO)
        76                         -0.2323175              -6.3217 (LUMO)
        77                         -0.2203852              -5.9970
        78                         -0.1507982              -4.1034
        79                         -0.1004074              -2.7322
        80                         -0.0249839              -0.6798
        81                         -0.0017051              -0.0464
        82                          0.0130323               0.3546
        83                          0.0211524               0.5756
        84                          0.0259574               0.7063
        85                          0.0317721               0.8646
        86                          0.0522818               1.4227
       ...                                ...                  ...
       144                          0.6980656              18.9953
      -------------------------------------------------------------
                  HL-Gap            0.0723137 Eh            1.9678 eV

     #   Z          covCN         q      C6AA      α(0)
     1   6 C        3.755    -0.118    22.809     6.810
     2   6 C        3.859     0.129    18.448     6.108
     3   8 O        1.638    -0.374    20.362     6.091
     4   6 C        3.755    -0.117    22.795     6.808
     5   6 C        3.861     0.129    18.455     6.109
     6   6 C        3.755    -0.118    22.825     6.812
     7   6 C        3.755    -0.117    22.790     6.807
     8   8 O        1.638    -0.368    20.251     6.074
     9   5 B        2.659     0.442    15.451     6.618
    10   6 C        3.839    -0.045    21.352     6.574
    11   6 C        2.896    -0.076    29.901     8.966
    12   6 C        3.850     0.002    20.512     6.442
    13   1 H        0.925     0.028     2.611     2.527
    14   6 C        3.865    -0.027    21.005     6.517
    15   1 H        0.925     0.042     2.422     2.434
    16   6 C        2.863    -0.088    30.194     9.007
    17   5 B        2.663     0.431    15.562     6.640
    18   8 O        1.638    -0.375    20.371     6.092
    19   6 C        3.859     0.129    18.451     6.109
    20   6 C        3.755    -0.117    22.794     6.808
    21   6 C        3.755    -0.116    22.773     6.804
    22   6 C        3.860     0.129    18.452     6.109
    23   6 C        3.755    -0.116    22.781     6.806
    24   6 C        3.755    -0.117    22.800     6.808
    25   8 O        1.638    -0.373    20.337     6.087
    26   6 C        2.896    -0.026    28.649     8.776
    27   6 C        3.861    -0.029    21.051     6.525
    28   1 H        0.925     0.038     2.469     2.457
    29   6 C        3.870     0.007    20.411     6.424
    30   6 C        2.892    -0.082    30.039     8.986
    31   6 C        3.852     0.003    20.497     6.439
    32   1 H        0.925     0.028     2.613     2.528
    33   1 H        0.925     0.056     2.248     2.345
    34   1 H        0.925     0.041     2.433     2.439
    35   1 H        0.925     0.052     2.292     2.367
    36   1 H        0.925     0.054     2.275     2.359
    37   1 H        0.925     0.045     2.384     2.415
    38   1 H        0.925     0.044     2.396     2.421
    39   1 H        0.925     0.042     2.426     2.435
    40   1 H        0.925     0.054     2.275     2.359
    41   1 H        0.925     0.056     2.243     2.342
    42   1 H        0.925     0.044     2.390     2.418
    43   1 H        0.925     0.054     2.270     2.356
    44   1 H        0.925     0.044     2.399     2.422
    45   1 H        0.926     0.027     2.630     2.536
    46   1 H        0.925     0.053     2.277     2.360
    47   1 H        0.925     0.039     2.462     2.454
    48   1 H        0.925     0.052     2.298     2.370
    49   1 H        0.925     0.051     2.303     2.373
    50   1 H        0.925     0.044     2.402     2.424
    51   1 H        0.925     0.042     2.427     2.436
    52   1 H        0.925     0.042     2.423     2.434
    53   1 H        0.925     0.052     2.296     2.370
    54   1 H        0.925     0.044     2.398     2.422
    55   1 H        0.925     0.039     2.460     2.453
    56   1 H        0.925     0.052     2.298     2.371
    57   1 H        0.925     0.054     2.272     2.357
    58   1 H        0.925     0.038     2.477     2.461
    59   1 H        0.925     0.031     2.570     2.507
    60   1 H        0.925     0.014     2.819     2.626

Wiberg/Mayer (AO) data.
largest (>0.10) Wiberg bond orders for each atom

     #   Z sym  total        # sym  WBO       # sym  WBO       # sym  WBO
 ---------------------------------------------------------------------------
     1   6 C    3.994 --     2 C    0.997    34 H    0.984    33 H    0.982
                            35 H    0.982
     2   6 C    3.941 --     1 C    0.997     4 C    0.992     3 O    0.949
                             5 C    0.937
     3   8 O    2.234 --     9 B    1.137     2 C    0.949
     4   6 C    3.994 --     2 C    0.992    38 H    0.984    37 H    0.984
                            36 H    0.983
     5   6 C    3.940 --     6 C    0.997     7 C    0.991     8 O    0.947
                             2 C    0.937
     6   6 C    3.994 --     5 C    0.997    39 H    0.984    41 H    0.982
                            40 H    0.982
     7   6 C    3.995 --     5 C    0.991    42 H    0.984    44 H    0.984
                            43 H    0.982
     8   8 O    2.243 --     9 B    1.148     5 C    0.947
     9   5 B    3.373 --     8 O    1.148     3 O    1.137    10 C    0.975
    10   6 C    3.939 --    11 C    1.216     9 B    0.975    27 C    0.844
                            29 C    0.747
    11   6 C    3.970 --    12 C    1.352    10 C    1.216    45 H    0.967
                            30 C    0.298
    12   6 C    3.958 --    11 C    1.352    13 H    0.970    14 C    0.904
                            31 C    0.626
    13   1 H    0.999 --    12 C    0.970
    14   6 C    3.942 --    16 C    1.014    15 H    0.968    31 C    0.913
                            12 C    0.904
    15   1 H    0.998 --    14 C    0.968
    16   6 C    3.977 --    26 C    1.802    14 C    1.014    17 B    1.006
    17   5 B    3.377 --    25 O    1.125    18 O    1.121    16 C    1.006
    18   8 O    2.227 --    17 B    1.121    19 C    0.954
    19   6 C    3.944 --    20 C    0.997    21 C    0.990    18 O    0.954
                            22 C    0.936
    20   6 C    3.994 --    19 C    0.997    47 H    0.985    46 H    0.983
                            48 H    0.982
    21   6 C    3.994 --    19 C    0.990    51 H    0.985    50 H    0.984
                            49 H    0.983
    22   6 C    3.943 --    24 C    0.996    23 C    0.990    25 O    0.954
                            19 C    0.936
    23   6 C    3.995 --    22 C    0.990    52 H    0.985    54 H    0.984
                            53 H    0.983
    24   6 C    3.994 --    22 C    0.996    55 H    0.985    57 H    0.983
                            56 H    0.982
    25   8 O    2.230 --    17 B    1.125    22 C    0.954
    26   6 C    3.989 --    16 C    1.802    27 C    1.064    58 H    0.964
    27   6 C    3.926 --    26 C    1.064    28 H    0.969    29 C    0.891
                            10 C    0.844
    28   1 H    0.998 --    27 C    0.969
    29   6 C    3.956 --    30 C    1.226    59 H    0.967    27 C    0.891
                            10 C    0.747
    30   6 C    3.957 --    31 C    1.338    29 C    1.226    60 H    0.969
                            11 C    0.298
    31   6 C    3.956 --    30 C    1.338    32 H    0.971    14 C    0.913
                            12 C    0.626
    32   1 H    0.999 --    31 C    0.971
    33   1 H    0.997 --     1 C    0.982
    34   1 H    0.998 --     1 C    0.984
    35   1 H    0.997 --     1 C    0.982
    36   1 H    0.997 --     4 C    0.983
    37   1 H    0.998 --     4 C    0.984
    38   1 H    0.998 --     4 C    0.984
    39   1 H    0.998 --     6 C    0.984
    40   1 H    0.997 --     6 C    0.982
    41   1 H    0.997 --     6 C    0.982
    42   1 H    0.998 --     7 C    0.984
    43   1 H    0.997 --     7 C    0.982
    44   1 H    0.998 --     7 C    0.984
    45   1 H    0.999 --    11 C    0.967
    46   1 H    0.997 --    20 C    0.983
    47   1 H    0.998 --    20 C    0.985
    48   1 H    0.997 --    20 C    0.982
    49   1 H    0.997 --    21 C    0.983
    50   1 H    0.998 --    21 C    0.984
    51   1 H    0.998 --    21 C    0.985
    52   1 H    0.998 --    23 C    0.985
    53   1 H    0.997 --    23 C    0.983
    54   1 H    0.998 --    23 C    0.984
    55   1 H    0.998 --    24 C    0.985
    56   1 H    0.997 --    24 C    0.982
    57   1 H    0.997 --    24 C    0.983
    58   1 H    0.998 --    26 C    0.964
    59   1 H    0.998 --    29 C    0.967
    60   1 H    0.999 --    30 C    0.969
 ---------------------------------------------------------------------------

molecular dipole:
                 x           y           z       tot (Debye)
 q only:       -0.134      -0.613      -0.191
   full:       -0.012      -0.665      -0.248       1.805

           -------------------------------------------------
          | TOTAL ENERGY              -82.284723430291 Eh   |
          | GRADIENT NORM               0.000917441747 Eh/α |
          | HOMO-LUMO GAP               1.967755719792 eV   |
           -------------------------------------------------

 * finished run on 2022/07/09 at 18:33:28.511
