   * xtb version 6.5.0 (homebrew) compiled by 'nhattrup@GPGGRP-SHANNON.CHEME.CMU.EDU' on
          program call               : /opt/homebrew/bin/xtb bvl_bpin2_scan_6-1_xtb.xyz --chrg 0 --uhf 0 --opt --input xcontrol_bvl_bpin2_scan_6-1_xtb

   ID    Z sym.   atoms
    1    6 C      1, 2, 4-7, 10-12, 14, 16, 19-24, 26, 27, 29-31
    2    8 O      3, 8, 18, 25
    3    5 B      9, 17
    4    1 H      13, 15, 28, 32-60
constraining bond 12 31 to    2.1667000 Å, actual value:    2.0509568 Å
constraining bond 10 29 to    2.3889000 Å, actual value:    2.4973004 Å

          :  Hamiltonian                  GFN2-xTB          :
 * total energy  :   -82.1039024 Eh     change       -0.9474519E-09 Eh
 * total energy  :   -82.2338526 Eh     change       -0.1299502E+00 Eh
 * total energy  :   -82.2778153 Eh     change       -0.4396277E-01 Eh
 * total energy  :   -82.2785272 Eh     change       -0.7118534E-03 Eh
 * total energy  :   -82.2790804 Eh     change       -0.5532377E-03 Eh
 * total energy  :   -82.2746252 Eh     change        0.4455182E-02 Eh
 * total energy  :   -82.2795000 Eh     change       -0.4874778E-02 Eh
 * total energy  :   -82.2797075 Eh     change       -0.2075049E-03 Eh
 * total energy  :   -82.2799072 Eh     change       -0.1997158E-03 Eh
 * total energy  :   -82.2802428 Eh     change       -0.3355455E-03 Eh
 * total energy  :   -82.2812647 Eh     change       -0.3542508E-04 Eh
 * total energy  :   -82.2812900 Eh     change       -0.2536809E-04 Eh
 * total energy  :   -82.2813029 Eh     change       -0.1281940E-04 Eh
 * total energy  :   -82.2813168 Eh     change       -0.1394743E-04 Eh
 * total energy  :   -82.2813219 Eh     change       -0.5107068E-05 Eh
 * total energy  :   -82.2813348 Eh     change       -0.1284916E-04 Eh
 * total energy  :   -82.2813372 Eh     change       -0.2454214E-05 Eh
 * total energy  :   -82.2813394 Eh     change       -0.2146763E-05 Eh
 * total energy  :   -82.2813427 Eh     change       -0.3338823E-05 Eh
   *** GEOMETRY OPTIMIZATION CONVERGED AFTER 48 ITERATIONS ***

 final structure:
================
60
 xtb: 6.5.0 (homebrew)
C            3.50970686870775      -37.81693786353109       15.97181095540041
C            3.70490722586562      -38.19744459757563       17.43789537819193
O            3.27148305026015      -37.12433620448356       18.27014761189471
C            2.81400869348484      -39.40266232049171       17.76579511757418
C            5.20034059143537      -38.40702416458033       17.87494728825234
C            5.64093362958058      -39.86522735001265       17.98327129686360
C            6.19335356022562      -37.64883135642197       16.98430787350365
O            5.25070258838517      -37.79752018696050       19.16317006527548
B            4.15297184294658      -36.98967516856479       19.31204141625924
C            3.92223530105160      -36.06377738719781       20.52924893158675
C            4.95354800265403      -35.81089177268202       21.40750039122289
C            4.98389374337295      -34.97218069368069       22.50953471960153
H            5.93680150466063      -34.80493465183424       22.99033694772372
C            3.84200955292799      -34.13823096145198       23.03884657049462
H            4.06394458537051      -33.79360682359270       24.04942371085137
C            2.48438550424273      -34.77852574848402       23.04279423231814
B            1.73508791859571      -34.86945594223124       24.40800110027694
O            2.25351810831268      -34.40660081261931       25.58699126834117
C            1.40080114297882      -34.81505272698022       26.65541418659410
C            1.26698401572608      -33.67705117734105       27.66476318719705
C            2.08122144198457      -36.01097025257723       27.33395291590782
C            0.07025959243682      -35.20809668337500       25.91671303785008
C           -0.94971831396017      -34.06310209718518       25.87590718275021
C           -0.61266915494205      -36.46700737656161       26.44670545400466
O            0.49975339310974      -35.42940803783743       24.57342181273085
C            1.95191466226633      -35.29075250573575       21.93323810176638
C            2.59436128373805      -35.29608074753454       20.58404840275985
H            1.91766697848700      -35.76816214076680       19.86944166547237
C            2.96864502944055      -33.93022513332994       20.04733356921793
C            3.70542825881245      -32.99948616760500       20.71730198114073
C            4.12061083880263      -33.04401173785693       22.04472090857032
H            4.81110558995615      -32.28310960287860       22.37921866060576
H            2.44565052225650      -37.71592625894607       15.77282376085989
H            3.91636534273273      -38.59012214299128       15.32537067926618
H            3.98546821202943      -36.86818354175032       15.74553487819923
H            1.77742154734852      -39.12245125957676       17.59324713125143
H            2.91881882568921      -39.67248595072758       18.81366919700557
H            3.05895810007675      -40.25505544837100       17.13924797962168
H            5.52723541237997      -40.36468858258456       17.02484898703556
H            5.06790736231943      -40.39311511263681       18.73849635151112
H            6.68818495560155      -39.89546064932067       18.27390976007148
H            6.24216371186954      -38.08339192875862       15.99042274690343
H            7.17792683789442      -37.70244134377416       17.44329566351936
H            5.91232200144865      -36.60079163094353       16.91563280770283
H            5.87699990848361      -36.33892554921294       21.19455405567337
H            2.23671848859261      -33.49665299737689       28.12214381052878
H            0.55661295379934      -33.94583218622899       28.44185927339340
H            0.94709155418095      -32.75944599998388       27.18209623237355
H            3.06708192589167      -35.70088161439014       27.67278673360438
H            2.21118998579861      -36.82190633796434       26.62166178810976
H            1.50693180085481      -36.35811480212494       28.18759859375785
H           -1.35434615930357      -33.86173126975201       26.86328172243293
H           -1.76159439568065      -34.34861306265864       25.21115429941495
H           -0.48914125862172      -33.16377189591098       25.47482913988879
H           -0.86187449695633      -36.34586082172875       27.49747139684721
H            0.02113935556470      -37.33864790376771       26.32147584203260
H           -1.52837612797788      -36.63333917878041       25.88492025709109
H            0.97771140748501      -35.75508691757245       22.00483998489074
H            2.78527755768599      -33.78367366962217       18.99344076829631
H            4.01371763761019      -32.12002154858597       20.16096021651394

          :  Hamiltonian                  GFN2-xTB          :
         :: total energy             -82.281342696126 Eh    ::
         :: gradient norm              0.000458677503 Eh/a0 ::
         :: HOMO-LUMO gap              1.623763144186 eV    ::
         :: SCC energy               -83.354632907939 Eh    ::
         :: -> dispersion             -0.062330697586 Eh    ::
         :: repulsion energy           1.072394250378 Eh    ::

    * Orbital Energies and Occupations

         #    Occupation            Energy/Eh            Energy/eV
      -------------------------------------------------------------
         1        2.0000           -0.6869122             -18.6918
       ...           ...                  ...                  ...
        63        2.0000           -0.4360480             -11.8655
        64        2.0000           -0.4293277             -11.6826
        65        2.0000           -0.4229254             -11.5084
        66        2.0000           -0.4195754             -11.4172
        67        2.0000           -0.4184680             -11.3871
        68        2.0000           -0.4135658             -11.2537
        69        2.0000           -0.4005338             -10.8991
        70        2.0000           -0.3965990             -10.7920
        71        2.0000           -0.3961585             -10.7800
        72        2.0000           -0.3946189             -10.7381
        73        2.0000           -0.3916282             -10.6567
        74        2.0000           -0.3639641              -9.9040
        75        2.0000           -0.3293158              -8.9611 (HOMO)
        76                         -0.2696436              -7.3374 (LUMO)
        77                         -0.2184162              -5.9434
        78                         -0.1865302              -5.0757
        79                         -0.1427801              -3.8852
        80                         -0.0964752              -2.6252
        81                         -0.0842852              -2.2935
        82                          0.0096927               0.2638
        83                          0.0144165               0.3923
        84                          0.0293471               0.7986
        85                          0.0309779               0.8430
        86                          0.0572917               1.5590
       ...                                ...                  ...
       144                          0.6788260              18.4718
      -------------------------------------------------------------
                  HL-Gap            0.0596722 Eh            1.6238 eV

     #   Z          covCN         q      C6AA      α(0)
     1   6 C        3.755    -0.116    22.786     6.806
     2   6 C        3.858     0.130    18.445     6.108
     3   8 O        1.638    -0.376    20.392     6.096
     4   6 C        3.755    -0.116    22.768     6.804
     5   6 C        3.859     0.130    18.444     6.108
     6   6 C        3.755    -0.117    22.794     6.808
     7   6 C        3.755    -0.115    22.759     6.802
     8   8 O        1.638    -0.376    20.396     6.096
     9   5 B        2.658     0.430    15.591     6.649
    10   6 C        2.883    -0.086    30.144     9.001
    11   6 C        2.892    -0.034    28.845     8.805
    12   6 C        3.077    -0.026    28.573     8.764
    13   1 H        0.926     0.030     2.582     2.513
    14   6 C        3.863    -0.009    20.701     6.470
    15   1 H        0.924     0.049     2.328     2.386
    16   6 C        2.864    -0.084    30.102     8.993
    17   5 B        2.661     0.431    15.571     6.642
    18   8 O        1.638    -0.372    20.324     6.085
    19   6 C        3.860     0.129    18.457     6.110
    20   6 C        3.755    -0.117    22.799     6.808
    21   6 C        3.755    -0.116    22.781     6.806
    22   6 C        3.860     0.129    18.457     6.110
    23   6 C        3.755    -0.116    22.786     6.806
    24   6 C        3.755    -0.118    22.807     6.810
    25   8 O        1.638    -0.370    20.278     6.078
    26   6 C        2.898    -0.025    28.618     8.771
    27   6 C        3.859    -0.015    20.801     6.486
    28   1 H        0.924     0.047     2.356     2.400
    29   6 C        2.910    -0.031    28.762     8.794
    30   6 C        2.888    -0.036    28.899     8.813
    31   6 C        3.079    -0.022    28.464     8.747
    32   1 H        0.926     0.031     2.572     2.508
    33   1 H        0.925     0.054     2.276     2.359
    34   1 H        0.925     0.039     2.467     2.456
    35   1 H        0.925     0.051     2.310     2.377
    36   1 H        0.925     0.051     2.302     2.373
    37   1 H        0.925     0.043     2.405     2.425
    38   1 H        0.925     0.041     2.431     2.438
    39   1 H        0.925     0.039     2.463     2.454
    40   1 H        0.925     0.052     2.299     2.371
    41   1 H        0.925     0.053     2.278     2.360
    42   1 H        0.925     0.042     2.426     2.436
    43   1 H        0.925     0.051     2.308     2.376
    44   1 H        0.925     0.042     2.418     2.432
    45   1 H        0.925     0.036     2.507     2.476
    46   1 H        0.925     0.054     2.270     2.356
    47   1 H        0.925     0.040     2.454     2.450
    48   1 H        0.925     0.052     2.297     2.370
    49   1 H        0.925     0.052     2.297     2.370
    50   1 H        0.925     0.044     2.398     2.422
    51   1 H        0.925     0.042     2.418     2.432
    52   1 H        0.925     0.043     2.413     2.429
    53   1 H        0.925     0.053     2.288     2.365
    54   1 H        0.925     0.044     2.400     2.422
    55   1 H        0.925     0.040     2.451     2.448
    56   1 H        0.925     0.052     2.292     2.367
    57   1 H        0.925     0.055     2.264     2.353
    58   1 H        0.925     0.037     2.485     2.465
    59   1 H        0.926     0.031     2.570     2.507
    60   1 H        0.925     0.026     2.647     2.544

Wiberg/Mayer (AO) data.
largest (>0.10) Wiberg bond orders for each atom

     #   Z sym  total        # sym  WBO       # sym  WBO       # sym  WBO
 ---------------------------------------------------------------------------
     1   6 C    3.994 --     2 C    0.996    34 H    0.985    33 H    0.983
                            35 H    0.982
     2   6 C    3.944 --     1 C    0.996     4 C    0.990     3 O    0.955
                             5 C    0.936
     3   8 O    2.220 --     9 B    1.114     2 C    0.955
     4   6 C    3.994 --     2 C    0.990    38 H    0.985    37 H    0.984
                            36 H    0.983
     5   6 C    3.943 --     6 C    0.996     7 C    0.990     8 O    0.955
                             2 C    0.936
     6   6 C    3.994 --     5 C    0.996    39 H    0.985    41 H    0.983
                            40 H    0.982
     7   6 C    3.995 --     5 C    0.990    42 H    0.985    44 H    0.984
                            43 H    0.983
     8   8 O    2.220 --     9 B    1.115     5 C    0.955
     9   5 B    3.385 --     8 O    1.115     3 O    1.114    10 C    1.027
    10   6 C    3.952 --    11 C    1.504     9 B    1.027    27 C    0.948
                            29 C    0.187    31 C    0.153
    11   6 C    3.991 --    10 C    1.504    12 C    1.420    45 H    0.960
    12   6 C    3.947 --    11 C    1.420    13 H    0.972    14 C    0.958
                            31 C    0.367    29 C    0.148
    13   1 H    0.999 --    12 C    0.972
    14   6 C    3.989 --    16 C    1.001    31 C    0.973    15 H    0.967
                            12 C    0.958
    15   1 H    0.997 --    14 C    0.967
    16   6 C    3.977 --    26 C    1.851    14 C    1.001    17 B    1.000
    17   5 B    3.376 --    25 O    1.133    18 O    1.127    16 C    1.000
    18   8 O    2.233 --    17 B    1.127    19 C    0.953
    19   6 C    3.943 --    20 C    0.997    21 C    0.991    18 O    0.953
                            22 C    0.937
    20   6 C    3.994 --    19 C    0.997    47 H    0.985    46 H    0.983
                            48 H    0.982
    21   6 C    3.994 --    19 C    0.991    51 H    0.984    50 H    0.984
                            49 H    0.983
    22   6 C    3.942 --    24 C    0.996    23 C    0.991    25 O    0.953
                            19 C    0.937
    23   6 C    3.995 --    22 C    0.991    52 H    0.984    54 H    0.984
                            53 H    0.983
    24   6 C    3.994 --    22 C    0.996    55 H    0.984    57 H    0.983
                            56 H    0.982
    25   8 O    2.236 --    17 B    1.133    22 C    0.953
    26   6 C    3.986 --    16 C    1.851    27 C    1.009    58 H    0.967
    27   6 C    3.993 --    26 C    1.009    29 C    0.981    28 H    0.971
                            10 C    0.948
    28   1 H    0.998 --    27 C    0.971
    29   6 C    3.966 --    30 C    1.574    27 C    0.981    59 H    0.972
                            10 C    0.187    12 C    0.148
    30   6 C    3.992 --    29 C    1.574    31 C    1.380    60 H    0.962
    31   6 C    3.932 --    30 C    1.380    32 H    0.974    14 C    0.973
                            12 C    0.367    10 C    0.153
    32   1 H    0.999 --    31 C    0.974
    33   1 H    0.997 --     1 C    0.983
    34   1 H    0.998 --     1 C    0.985
    35   1 H    0.997 --     1 C    0.982
    36   1 H    0.997 --     4 C    0.983
    37   1 H    0.998 --     4 C    0.984
    38   1 H    0.998 --     4 C    0.985
    39   1 H    0.998 --     6 C    0.985
    40   1 H    0.997 --     6 C    0.982
    41   1 H    0.997 --     6 C    0.983
    42   1 H    0.998 --     7 C    0.985
    43   1 H    0.997 --     7 C    0.983
    44   1 H    0.998 --     7 C    0.984
    45   1 H    0.998 --    11 C    0.960
    46   1 H    0.997 --    20 C    0.983
    47   1 H    0.998 --    20 C    0.985
    48   1 H    0.997 --    20 C    0.982
    49   1 H    0.997 --    21 C    0.983
    50   1 H    0.998 --    21 C    0.984
    51   1 H    0.998 --    21 C    0.984
    52   1 H    0.998 --    23 C    0.984
    53   1 H    0.997 --    23 C    0.983
    54   1 H    0.998 --    23 C    0.984
    55   1 H    0.998 --    24 C    0.984
    56   1 H    0.997 --    24 C    0.982
    57   1 H    0.997 --    24 C    0.983
    58   1 H    0.998 --    26 C    0.967
    59   1 H    0.999 --    29 C    0.972
    60   1 H    0.999 --    30 C    0.962
 ---------------------------------------------------------------------------

molecular dipole:
                 x           y           z       tot (Debye)
 q only:       -0.240      -0.301       0.234
   full:       -0.052      -0.352       0.108       0.946

           -------------------------------------------------
          | TOTAL ENERGY              -82.281342696126 Eh   |
          | GRADIENT NORM               0.000458677503 Eh/α |
          | HOMO-LUMO GAP               1.623763144186 eV   |
           -------------------------------------------------

 * finished run on 2022/07/09 at 18:33:13.661
