   * xtb version 6.5.0 (homebrew) compiled by 'nhattrup@GPGGRP-SHANNON.CHEME.CMU.EDU' on
          program call               : /opt/homebrew/bin/xtb bvl_bpin2_scan_6-5_xtb.xyz --chrg 0 --uhf 0 --opt --input xcontrol_bvl_bpin2_scan_6-5_xtb

   ID    Z sym.   atoms
    1    6 C      1, 2, 4-7, 10-12, 14, 16, 19-24, 26, 27, 29-31
    2    8 O      3, 8, 18, 25
    3    5 B      9, 17
    4    1 H      13, 15, 28, 32-60
constraining bond 12 31 to    2.1667000 Å, actual value:    2.0544070 Å
constraining bond 10 29 to    1.9444000 Å, actual value:    2.0541067 Å

          :  Hamiltonian                  GFN2-xTB          :
 * total energy  :   -82.1194215 Eh     change       -0.2299458E-08 Eh
 * total energy  :   -82.2536079 Eh     change       -0.1341865E+00 Eh
 * total energy  :   -82.2955831 Eh     change       -0.4197515E-01 Eh
 * total energy  :   -82.2963530 Eh     change       -0.7698862E-03 Eh
 * total energy  :   -82.2967403 Eh     change       -0.3873570E-03 Eh
 * total energy  :   -82.2931397 Eh     change        0.3600617E-02 Eh
 * total energy  :   -82.2973044 Eh     change       -0.4164711E-02 Eh
 * total energy  :   -82.2974486 Eh     change       -0.1441191E-03 Eh
 * total energy  :   -82.2976233 Eh     change       -0.1747648E-03 Eh
 * total energy  :   -82.2977941 Eh     change       -0.1707950E-03 Eh
 * total energy  :   -82.2978752 Eh     change       -0.2067588E-04 Eh
 * total energy  :   -82.2978932 Eh     change       -0.1805080E-04 Eh
 * total energy  :   -82.2979070 Eh     change       -0.1374308E-04 Eh
 * total energy  :   -82.2979185 Eh     change       -0.1158955E-04 Eh
 * total energy  :   -82.2979244 Eh     change       -0.5883199E-05 Eh
 * total energy  :   -82.2979360 Eh     change       -0.1152533E-04 Eh
 * total energy  :   -82.2979411 Eh     change       -0.5164276E-05 Eh
 * total energy  :   -82.2979476 Eh     change       -0.6461405E-05 Eh
 * total energy  :   -82.2979507 Eh     change       -0.3119629E-05 Eh
   *** GEOMETRY OPTIMIZATION CONVERGED AFTER 21 ITERATIONS ***

 final structure:
================
60
 xtb: 6.5.0 (homebrew)
C            3.45645176113888      -37.75641365531430       15.92717504053942
C            3.72639444630244      -38.15897636713376       17.37514288056333
O            3.25828502956643      -37.13367280192414       18.25020902449006
C            2.92340447845606      -39.42487333592975       17.70142768585360
C            5.24551123563671      -38.28570923070172       17.75770984826372
C            5.78011190599479      -39.71505494464650       17.80739565142025
C            6.15747542575233      -37.43771462302197       16.86209602509211
O            5.29904515608222      -37.71170697982161       19.06390407267505
B            4.16198160379048      -36.98021002546757       19.27005134257480
C            3.90142091448623      -36.11125039192153       20.52806682526166
C            4.92841206098362      -35.95864682920456       21.49142846154652
C            4.94535688371683      -35.16795527147092       22.59205563034305
H            5.86807067622700      -35.10362435983412       23.15260102745371
C            3.83963539010037      -34.27247297941800       23.06282104521792
H            4.06705656417523      -33.87617858351983       24.05308398239958
C            2.46323821312056      -34.87621758148580       23.10951284537079
B            1.71151196678424      -34.87976390420194       24.47617929808539
O            2.22773650933208      -34.37491905968848       25.63790076723486
C            1.35916778763372      -34.72373248929970       26.71498513787631
C            1.23529818034527      -33.54360193145764       27.67579174402350
C            2.01273211617993      -35.90251993451384       27.44765600146217
C            0.02778558111591      -35.12478140507555       25.98180591892461
C           -0.97192274305331      -33.96552466529961       25.88228065984637
C           -0.68158686458378      -36.34872467128280       26.55684687275667
O            0.46458864429040      -35.41072274176808       24.65382576297674
C            1.90182695754681      -35.43793441466229       22.03856457132141
C            2.49877499732234      -35.55278172348697       20.69085930374519
H            1.81597362256407      -36.04429506921480       20.00090663724104
C            3.16429181800379      -34.38207789981798       20.04327563697962
C            3.82193559745207      -33.32661260528680       20.69345747446060
C            4.13014933618370      -33.24552805878338       22.01407833366775
H            4.72423279962789      -32.40290649845699       22.34100478711598
H            2.38164638730944      -37.71439668870337       15.76841144972599
H            3.88376354289014      -38.48908026462107       15.24793583333100
H            3.86715261172531      -36.77615263236240       15.70799109935042
H            1.86559381943532      -39.20587301763453       17.57422751803754
H            3.08405031565156      -39.71552370885208       18.73661550947407
H            3.19613923397765      -40.24349232868258       17.04223138422574
H            5.66191867582840      -40.19468709724872       16.83947058321460
H            5.26956630653092      -40.29857589249265       18.56656714141846
H            6.83721883484877      -39.68699432804723       18.05961882525928
H            6.20107184995115      -37.83769205392223       15.85355033491594
H            7.15790539380478      -37.44018656009672       17.28862608938647
H            5.80696468374278      -36.40886252018541       16.83638682618588
H            5.84153925920359      -36.48602504820634       21.24138469704236
H            2.20255483888095      -33.36167658957469       28.13772167168873
H            0.51095710986426      -33.76861706760864       28.45399231868833
H            0.93712175167579      -32.64071963612648       27.15288843548939
H            3.00189134206504      -35.59692646966836       27.78103607095170
H            2.13260531758417      -36.74452038012431       26.77047470236294
H            1.42596781706876      -36.20338226661971       28.31035276301969
H           -1.38254457026109      -33.71521199668378       26.85584790497562
H           -1.78226573630498      -34.26604984678460       25.22210296515570
H           -0.49256761655360      -33.09204308110107       25.44750467489699
H           -0.94085722394216      -36.17962138184816       27.59844639757954
H           -0.06078610381502      -37.23502216883279       26.47587692036257
H           -1.59309729092752      -36.52406152279222       25.99091809583511
H            0.91521700945226      -35.86751147082335       22.14884932039139
H            3.07544132348822      -34.33722501451675       18.96924097291833
H            4.19523306455006      -32.53971393272625       20.04751919733204

          :  Hamiltonian                  GFN2-xTB          :
         :: total energy             -82.297950697550 Eh    ::
         :: gradient norm              0.000967223563 Eh/a0 ::
         :: HOMO-LUMO gap              2.924036929007 eV    ::
         :: SCC energy               -83.377611964657 Eh    ::
         :: -> dispersion             -0.062086046716 Eh    ::
         :: repulsion energy           1.078910032358 Eh    ::

    * Orbital Energies and Occupations

         #    Occupation            Energy/Eh            Energy/eV
      -------------------------------------------------------------
         1        2.0000           -0.6893987             -18.7595
       ...           ...                  ...                  ...
        63        2.0000           -0.4334716             -11.7954
        64        2.0000           -0.4331783             -11.7874
        65        2.0000           -0.4252575             -11.5718
        66        2.0000           -0.4222013             -11.4887
        67        2.0000           -0.4189319             -11.3997
        68        2.0000           -0.4159521             -11.3186
        69        2.0000           -0.4035538             -10.9813
        70        2.0000           -0.3983827             -10.8405
        71        2.0000           -0.3967088             -10.7950
        72        2.0000           -0.3938291             -10.7166
        73        2.0000           -0.3876896             -10.5496
        74        2.0000           -0.3542023              -9.6383
        75        2.0000           -0.3426114              -9.3229 (HOMO)
        76                         -0.2351551              -6.3989 (LUMO)
        77                         -0.2154254              -5.8620
        78                         -0.1864068              -5.0724
        79                         -0.1362366              -3.7072
        80                         -0.0964799              -2.6254
        81                         -0.0665905              -1.8120
        82                          0.0086960               0.2366
        83                          0.0102545               0.2790
        84                          0.0275512               0.7497
        85                          0.0296641               0.8072
        86                          0.0562815               1.5315
       ...                                ...                  ...
       144                          0.6863062              18.6753
      -------------------------------------------------------------
                  HL-Gap            0.1074564 Eh            2.9240 eV

     #   Z          covCN         q      C6AA      α(0)
     1   6 C        3.755    -0.117    22.791     6.807
     2   6 C        3.859     0.130    18.439     6.107
     3   8 O        1.638    -0.379    20.458     6.105
     4   6 C        3.755    -0.116    22.779     6.805
     5   6 C        3.859     0.130    18.444     6.108
     6   6 C        3.755    -0.117    22.805     6.809
     7   6 C        3.755    -0.115    22.766     6.803
     8   8 O        1.638    -0.373    20.351     6.089
     9   5 B        2.658     0.434    15.538     6.637
    10   6 C        3.473    -0.070    24.040     7.349
    11   6 C        2.891    -0.046    29.134     8.849
    12   6 C        3.074    -0.030    28.680     8.781
    13   1 H        0.925     0.026     2.649     2.545
    14   6 C        3.865    -0.014    20.780     6.482
    15   1 H        0.924     0.045     2.384     2.415
    16   6 C        2.865    -0.082    30.044     8.985
    17   5 B        2.663     0.432    15.555     6.638
    18   8 O        1.638    -0.371    20.299     6.082
    19   6 C        3.860     0.129    18.456     6.109
    20   6 C        3.755    -0.117    22.797     6.808
    21   6 C        3.755    -0.116    22.777     6.805
    22   6 C        3.860     0.129    18.455     6.109
    23   6 C        3.755    -0.116    22.783     6.806
    24   6 C        3.755    -0.117    22.805     6.809
    25   8 O        1.638    -0.371    20.307     6.083
    26   6 C        2.896    -0.027    28.684     8.781
    27   6 C        3.862    -0.008    20.673     6.466
    28   1 H        0.925     0.046     2.367     2.406
    29   6 C        3.501    -0.015    22.488     7.036
    30   6 C        2.888    -0.045    29.122     8.847
    31   6 C        3.075    -0.026    28.571     8.764
    32   1 H        0.925     0.027     2.631     2.536
    33   1 H        0.925     0.054     2.268     2.355
    34   1 H        0.925     0.040     2.455     2.450
    35   1 H        0.925     0.051     2.306     2.375
    36   1 H        0.925     0.052     2.297     2.370
    37   1 H        0.925     0.044     2.401     2.423
    38   1 H        0.925     0.042     2.418     2.432
    39   1 H        0.925     0.040     2.450     2.448
    40   1 H        0.925     0.052     2.290     2.367
    41   1 H        0.925     0.054     2.265     2.353
    42   1 H        0.925     0.043     2.415     2.430
    43   1 H        0.925     0.052     2.293     2.368
    44   1 H        0.925     0.043     2.413     2.429
    45   1 H        0.925     0.033     2.548     2.496
    46   1 H        0.925     0.054     2.268     2.355
    47   1 H        0.925     0.040     2.455     2.450
    48   1 H        0.925     0.052     2.296     2.369
    49   1 H        0.925     0.052     2.294     2.369
    50   1 H        0.925     0.044     2.400     2.422
    51   1 H        0.925     0.042     2.420     2.433
    52   1 H        0.925     0.043     2.415     2.430
    53   1 H        0.925     0.052     2.291     2.367
    54   1 H        0.925     0.044     2.399     2.422
    55   1 H        0.925     0.040     2.452     2.449
    56   1 H        0.925     0.052     2.294     2.368
    57   1 H        0.925     0.054     2.266     2.354
    58   1 H        0.925     0.038     2.476     2.461
    59   1 H        0.926     0.035     2.513     2.479
    60   1 H        0.925     0.023     2.687     2.564

Wiberg/Mayer (AO) data.
largest (>0.10) Wiberg bond orders for each atom

     #   Z sym  total        # sym  WBO       # sym  WBO       # sym  WBO
 ---------------------------------------------------------------------------
     1   6 C    3.994 --     2 C    0.997    34 H    0.985    33 H    0.983
                            35 H    0.982
     2   6 C    3.943 --     1 C    0.997     4 C    0.991     3 O    0.953
                             5 C    0.937
     3   8 O    2.218 --     9 B    1.115     2 C    0.953
     4   6 C    3.994 --     2 C    0.991    38 H    0.984    37 H    0.984
                            36 H    0.983
     5   6 C    3.942 --     6 C    0.997     7 C    0.991     8 O    0.952
                             2 C    0.937
     6   6 C    3.994 --     5 C    0.997    39 H    0.984    41 H    0.983
                            40 H    0.982
     7   6 C    3.994 --     5 C    0.991    42 H    0.984    44 H    0.984
                            43 H    0.983
     8   8 O    2.227 --     9 B    1.125     5 C    0.952
     9   5 B    3.385 --     8 O    1.125     3 O    1.115    10 C    1.019
    10   6 C    3.925 --    11 C    1.271     9 B    1.019    27 C    0.915
                            29 C    0.483    31 C    0.116
    11   6 C    3.990 --    12 C    1.640    10 C    1.271    45 H    0.962
    12   6 C    3.974 --    11 C    1.640    13 H    0.971    14 C    0.966
                            31 C    0.199    29 C    0.109
    13   1 H    0.999 --    12 C    0.971
    14   6 C    3.991 --    16 C    0.992    31 C    0.975    15 H    0.970
                            12 C    0.966
    15   1 H    0.998 --    14 C    0.970
    16   6 C    3.977 --    26 C    1.842    17 B    0.999    14 C    0.992
    17   5 B    3.376 --    25 O    1.130    18 O    1.129    16 C    0.999
    18   8 O    2.234 --    17 B    1.129    19 C    0.953
    19   6 C    3.943 --    20 C    0.997    21 C    0.991    18 O    0.953
                            22 C    0.936
    20   6 C    3.994 --    19 C    0.997    47 H    0.985    46 H    0.983
                            48 H    0.982
    21   6 C    3.994 --    19 C    0.991    51 H    0.984    50 H    0.984
                            49 H    0.983
    22   6 C    3.943 --    24 C    0.996    23 C    0.991    25 O    0.953
                            19 C    0.936
    23   6 C    3.995 --    22 C    0.991    52 H    0.984    54 H    0.984
                            53 H    0.983
    24   6 C    3.994 --    22 C    0.996    55 H    0.985    57 H    0.983
                            56 H    0.982
    25   8 O    2.234 --    17 B    1.130    22 C    0.953
    26   6 C    3.988 --    16 C    1.842    27 C    1.032    58 H    0.966
    27   6 C    3.982 --    26 C    1.032    28 H    0.968    29 C    0.961
                            10 C    0.915
    28   1 H    0.998 --    27 C    0.968
    29   6 C    3.943 --    30 C    1.309    59 H    0.974    27 C    0.961
                            10 C    0.483    12 C    0.109
    30   6 C    3.989 --    31 C    1.613    29 C    1.309    60 H    0.964
    31   6 C    3.963 --    30 C    1.613    14 C    0.975    32 H    0.972
                            12 C    0.199    10 C    0.116
    32   1 H    0.999 --    31 C    0.972
    33   1 H    0.997 --     1 C    0.983
    34   1 H    0.998 --     1 C    0.985
    35   1 H    0.997 --     1 C    0.982
    36   1 H    0.997 --     4 C    0.983
    37   1 H    0.998 --     4 C    0.984
    38   1 H    0.998 --     4 C    0.984
    39   1 H    0.998 --     6 C    0.984
    40   1 H    0.997 --     6 C    0.982
    41   1 H    0.997 --     6 C    0.983
    42   1 H    0.998 --     7 C    0.984
    43   1 H    0.997 --     7 C    0.983
    44   1 H    0.998 --     7 C    0.984
    45   1 H    0.999 --    11 C    0.962
    46   1 H    0.997 --    20 C    0.983
    47   1 H    0.998 --    20 C    0.985
    48   1 H    0.997 --    20 C    0.982
    49   1 H    0.997 --    21 C    0.983
    50   1 H    0.998 --    21 C    0.984
    51   1 H    0.998 --    21 C    0.984
    52   1 H    0.998 --    23 C    0.984
    53   1 H    0.997 --    23 C    0.983
    54   1 H    0.998 --    23 C    0.984
    55   1 H    0.998 --    24 C    0.985
    56   1 H    0.997 --    24 C    0.982
    57   1 H    0.997 --    24 C    0.983
    58   1 H    0.998 --    26 C    0.966
    59   1 H    0.998 --    29 C    0.974
    60   1 H    0.999 --    30 C    0.964
 ---------------------------------------------------------------------------

molecular dipole:
                 x           y           z       tot (Debye)
 q only:       -0.318      -0.411       0.017
   full:       -0.199      -0.482      -0.102       1.350

           -------------------------------------------------
          | TOTAL ENERGY              -82.297950697550 Eh   |
          | GRADIENT NORM               0.000967223563 Eh/α |
          | HOMO-LUMO GAP               2.924036929007 eV   |
           -------------------------------------------------

 * finished run on 2022/07/09 at 18:33:29.903
