   * xtb version 6.5.0 (homebrew) compiled by 'nhattrup@GPGGRP-SHANNON.CHEME.CMU.EDU' on
          program call               : /opt/homebrew/bin/xtb bvl_bpin2_scan_0-6_xtb.xyz --chrg 0 --uhf 0 --opt --input xcontrol_bvl_bpin2_scan_0-6_xtb

   ID    Z sym.   atoms
    1    6 C      1, 2, 4-7, 10-12, 14, 16, 19-24, 26, 27, 29-31
    2    8 O      3, 8, 18, 25
    3    5 B      9, 17
    4    1 H      13, 15, 28, 32-60
constraining bond 12 31 to    1.5000000 Å, actual value:    1.5044348 Å
constraining bond 10 29 to    1.8333000 Å, actual value:    1.9486675 Å

          :  Hamiltonian                  GFN2-xTB          :
 * total energy  :   -82.2064467 Eh     change       -0.1033897E-08 Eh
 * total energy  :   -82.2662331 Eh     change       -0.5978641E-01 Eh
 * total energy  :   -82.2947139 Eh     change       -0.2848081E-01 Eh
 * total energy  :   -82.2950797 Eh     change       -0.3657756E-03 Eh
 * total energy  :   -82.2951972 Eh     change       -0.1175215E-03 Eh
 * total energy  :   -82.2952190 Eh     change       -0.2179609E-04 Eh
 * total energy  :   -82.2952365 Eh     change       -0.1754398E-04 Eh
 * total energy  :   -82.2952490 Eh     change       -0.1251726E-04 Eh
 * total energy  :   -82.2952554 Eh     change       -0.6381105E-05 Eh
 * total energy  :   -82.2952603 Eh     change       -0.4900050E-05 Eh
   *** GEOMETRY OPTIMIZATION CONVERGED AFTER 10 ITERATIONS ***

 final structure:
================
60
 xtb: 6.5.0 (homebrew)
C            3.39375299250056      -37.85538015068026       15.98048450010148
C            3.68246307136783      -38.17632828101981       17.44500082504387
O            3.23458526942713      -37.09863697870253       18.26716841211201
C            2.87129884918116      -39.41103512115357       17.85771029304204
C            5.20746950234355      -38.29367259122857       17.81108957161274
C            5.72287034991050      -39.72194883826811       17.97260897377189
C            6.11796928484481      -37.53861968168707       16.83506812492636
O            5.29219914641100      -37.61750581520811       19.06679173623288
B            4.15841371206959      -36.88164521092438       19.25120870812893
C            3.92851853541446      -35.90826016018379       20.45658490124508
C            4.94321181125504      -35.76887198652741       21.37572237256738
C            5.00552398263198      -34.73852715616531       22.37908726496790
H            5.94367796745308      -34.72958842326332       22.92736061856874
C            3.83015596567223      -34.16915350937462       23.12929410571088
H            4.07793936199702      -33.79134200271547       24.11362001457170
C            2.48320675986283      -34.78298615247357       23.10164313228990
B            1.71216002619738      -34.85255774485607       24.45683886259551
O            2.20715679893785      -34.38630658547255       25.64421606195584
C            1.33600654551020      -34.79794913214680       26.69691772403596
C            1.17920976875341      -33.66210437377564       27.70513933339458
C            2.00806379278303      -35.99239796301811       27.38634011206083
C            0.02012203913601      -35.19499520411487       25.93430158870854
C           -1.00324496874381      -34.05379337294251       25.87607118634860
C           -0.66774395116990      -36.45708835226954       26.45030842978921
O            0.47445164702848      -35.41463567360631       24.59952758811858
C            1.93817611653722      -35.30756717835792       22.00212343471770
C            2.53185367337301      -35.39157377185553       20.64849435033120
H            1.84433612260071      -35.86281777619211       19.95090313136486
C            3.25303495273277      -34.25580103787392       20.02425437073429
C            3.91945629760973      -33.25356893895034       20.66703807828327
C            4.44686845692044      -33.39207358255186       22.00380379992900
H            5.03618942581517      -32.53560124109024       22.32083740835240
H            2.31720410074727      -37.80797212452330       15.83618023667873
H            3.80032462280730      -38.63270340496004       15.33928598873341
H            3.81342830448951      -36.89563958398745       15.69709610506116
H            1.81480882574918      -39.19018192227349       17.72309866144885
H            3.03576322037635      -39.63393148956921       18.90894493879678
H            3.13193748157500      -40.27372232391519       17.25232306667636
H            5.58912325772612      -40.27783468336823       17.04871507935672
H            5.21231343411523      -40.23321969011868       18.78210756028322
H            6.78253778344002      -39.68734195341050       18.21283417714755
H            6.13476662502755      -38.02026301398658       15.86204901027641
H            7.12619097280795      -37.52777894543276       17.24253620782654
H            5.78777900499990      -36.50820093925711       16.73092752788975
H            5.87992006242669      -36.25159099976720       21.13212076276124
H            2.13838865303925      -33.48122737225663       28.18397898872477
H            0.45220961519415      -33.93358289317214       28.46583440480401
H            0.86847454203181      -32.74396773403091       27.21736848848901
H            2.98628031382376      -35.67896972261979       27.74386602466512
H            2.15460488387465      -36.80158124230420       26.67528157455272
H            1.41927650144235      -36.34305977712314       28.22859545107302
H           -1.42765866613580      -33.85606248274308       26.85584745169915
H           -1.80119939916264      -34.34116184276917       25.19529943517812
H           -0.53857046648792      -33.15192650803356       25.48571590533108
H           -0.94057971418232      -36.33691024565577       27.49527447880623
H           -0.02696515641290      -37.32576858220352       26.33952278548867
H           -1.56987839473950      -36.62836896846657       25.86831946853063
H            0.95328138114638      -35.74450711914236       22.09227658948072
H            3.08015906799619      -34.13604240700657       18.96087060349693
H            4.36039583591947      -32.46919803925238       20.06594001112900

          :  Hamiltonian                  GFN2-xTB          :
         :: total energy             -82.295260323688 Eh    ::
         :: gradient norm              0.000625598810 Eh/a0 ::
         :: HOMO-LUMO gap              2.548738465020 eV    ::
         :: SCC energy               -83.376438957130 Eh    ::
         :: -> dispersion             -0.060854412083 Eh    ::
         :: repulsion energy           1.080242147930 Eh    ::

    * Orbital Energies and Occupations

         #    Occupation            Energy/Eh            Energy/eV
      -------------------------------------------------------------
         1        2.0000           -0.6919719             -18.8295
       ...           ...                  ...                  ...
        63        2.0000           -0.4377525             -11.9119
        64        2.0000           -0.4338608             -11.8060
        65        2.0000           -0.4281016             -11.6492
        66        2.0000           -0.4227571             -11.5038
        67        2.0000           -0.4186996             -11.3934
        68        2.0000           -0.4134078             -11.2494
        69        2.0000           -0.4078428             -11.0980
        70        2.0000           -0.4006564             -10.9024
        71        2.0000           -0.3992548             -10.8643
        72        2.0000           -0.3957208             -10.7681
        73        2.0000           -0.3777265             -10.2785
        74        2.0000           -0.3761081             -10.2344
        75        2.0000           -0.3187853              -8.6746 (HOMO)
        76                         -0.2251208              -6.1259 (LUMO)
        77                         -0.2186730              -5.9504
        78                         -0.1599290              -4.3519
        79                         -0.1018836              -2.7724
        80                         -0.0689995              -1.8776
        81                          0.0040340               0.1098
        82                          0.0101841               0.2771
        83                          0.0167345               0.4554
        84                          0.0255854               0.6962
        85                          0.0300594               0.8180
        86                          0.0550764               1.4987
       ...                                ...                  ...
       144                          0.6982048              18.9991
      -------------------------------------------------------------
                  HL-Gap            0.0936644 Eh            2.5487 eV

     #   Z          covCN         q      C6AA      α(0)
     1   6 C        3.755    -0.117    22.799     6.808
     2   6 C        3.859     0.129    18.450     6.109
     3   8 O        1.638    -0.373    20.348     6.089
     4   6 C        3.755    -0.116    22.786     6.806
     5   6 C        3.859     0.129    18.453     6.109
     6   6 C        3.755    -0.118    22.816     6.811
     7   6 C        3.755    -0.116    22.780     6.805
     8   8 O        1.638    -0.370    20.293     6.081
     9   5 B        2.659     0.437    15.505     6.629
    10   6 C        3.654    -0.058    21.942     6.726
    11   6 C        2.896    -0.062    29.537     8.911
    12   6 C        3.865    -0.002    20.579     6.451
    13   1 H        0.925     0.028     2.612     2.527
    14   6 C        3.864    -0.028    21.032     6.522
    15   1 H        0.925     0.040     2.452     2.449
    16   6 C        2.863    -0.083    30.060     8.987
    17   5 B        2.663     0.432    15.547     6.636
    18   8 O        1.638    -0.373    20.341     6.088
    19   6 C        3.860     0.129    18.454     6.109
    20   6 C        3.755    -0.117    22.798     6.808
    21   6 C        3.755    -0.116    22.778     6.805
    22   6 C        3.860     0.129    18.454     6.109
    23   6 C        3.755    -0.116    22.784     6.806
    24   6 C        3.755    -0.117    22.804     6.809
    25   8 O        1.638    -0.371    20.307     6.083
    26   6 C        2.897    -0.030    28.751     8.791
    27   6 C        3.865    -0.018    20.852     6.494
    28   1 H        0.925     0.043     2.410     2.428
    29   6 C        3.682    -0.006    20.898     6.546
    30   6 C        2.891    -0.071    29.773     8.946
    31   6 C        3.868    -0.001    20.552     6.447
    32   1 H        0.925     0.028     2.610     2.526
    33   1 H        0.925     0.055     2.258     2.350
    34   1 H        0.925     0.040     2.444     2.445
    35   1 H        0.925     0.052     2.298     2.370
    36   1 H        0.925     0.053     2.284     2.363
    37   1 H        0.925     0.044     2.394     2.420
    38   1 H        0.925     0.043     2.408     2.427
    39   1 H        0.925     0.041     2.437     2.441
    40   1 H        0.925     0.053     2.286     2.364
    41   1 H        0.925     0.055     2.254     2.348
    42   1 H        0.925     0.044     2.402     2.424
    43   1 H        0.925     0.053     2.280     2.361
    44   1 H        0.925     0.044     2.400     2.423
    45   1 H        0.925     0.030     2.592     2.517
    46   1 H        0.925     0.054     2.270     2.356
    47   1 H        0.925     0.040     2.455     2.450
    48   1 H        0.925     0.052     2.294     2.369
    49   1 H        0.925     0.052     2.296     2.370
    50   1 H        0.925     0.044     2.400     2.423
    51   1 H        0.925     0.042     2.420     2.433
    52   1 H        0.925     0.042     2.417     2.431
    53   1 H        0.925     0.052     2.290     2.367
    54   1 H        0.925     0.044     2.396     2.421
    55   1 H        0.925     0.040     2.454     2.450
    56   1 H        0.925     0.052     2.295     2.369
    57   1 H        0.925     0.054     2.266     2.354
    58   1 H        0.925     0.037     2.494     2.470
    59   1 H        0.925     0.029     2.595     2.519
    60   1 H        0.925     0.017     2.781     2.608

Wiberg/Mayer (AO) data.
largest (>0.10) Wiberg bond orders for each atom

     #   Z sym  total        # sym  WBO       # sym  WBO       # sym  WBO
 ---------------------------------------------------------------------------
     1   6 C    3.994 --     2 C    0.997    34 H    0.984    33 H    0.982
                            35 H    0.982
     2   6 C    3.942 --     1 C    0.997     4 C    0.991     3 O    0.951
                             5 C    0.936
     3   8 O    2.232 --     9 B    1.130     2 C    0.951
     4   6 C    3.994 --     2 C    0.991    38 H    0.984    37 H    0.984
                            36 H    0.983
     5   6 C    3.941 --     6 C    0.997     7 C    0.991     8 O    0.950
                             2 C    0.936
     6   6 C    3.994 --     5 C    0.997    39 H    0.984    41 H    0.982
                            40 H    0.982
     7   6 C    3.995 --     5 C    0.991    42 H    0.984    44 H    0.984
                            43 H    0.983
     8   8 O    2.239 --     9 B    1.138     5 C    0.950
     9   5 B    3.378 --     8 O    1.138     3 O    1.130    10 C    0.992
    10   6 C    3.949 --    11 C    1.529     9 B    0.992    27 C    0.907
                            29 C    0.351
    11   6 C    3.980 --    10 C    1.529    12 C    1.175    45 H    0.966
                            30 C    0.172
    12   6 C    3.956 --    11 C    1.175    13 H    0.970    14 C    0.895
                            31 C    0.798
    13   1 H    0.999 --    12 C    0.970
    14   6 C    3.933 --    16 C    1.031    15 H    0.969    31 C    0.910
                            12 C    0.895
    15   1 H    0.998 --    14 C    0.969
    16   6 C    3.979 --    26 C    1.821    14 C    1.031    17 B    0.998
    17   5 B    3.375 --    25 O    1.130    18 O    1.127    16 C    0.998
    18   8 O    2.231 --    17 B    1.127    19 C    0.953
    19   6 C    3.943 --    20 C    0.997    21 C    0.991    18 O    0.953
                            22 C    0.937
    20   6 C    3.994 --    19 C    0.997    47 H    0.985    46 H    0.983
                            48 H    0.982
    21   6 C    3.994 --    19 C    0.991    51 H    0.984    50 H    0.984
                            49 H    0.983
    22   6 C    3.943 --    24 C    0.996    23 C    0.991    25 O    0.953
                            19 C    0.937
    23   6 C    3.995 --    22 C    0.991    52 H    0.984    54 H    0.984
                            53 H    0.983
    24   6 C    3.994 --    22 C    0.996    55 H    0.985    57 H    0.983
                            56 H    0.982
    25   8 O    2.234 --    17 B    1.130    22 C    0.953
    26   6 C    3.988 --    16 C    1.821    27 C    1.025    58 H    0.966
    27   6 C    3.970 --    26 C    1.025    28 H    0.968    29 C    0.941
                            10 C    0.907
    28   1 H    0.998 --    27 C    0.968
    29   6 C    3.964 --    30 C    1.572    59 H    0.970    27 C    0.941
                            10 C    0.351
    30   6 C    3.970 --    29 C    1.572    31 C    1.156    60 H    0.967
                            11 C    0.172
    31   6 C    3.953 --    30 C    1.156    32 H    0.970    14 C    0.910
                            12 C    0.798
    32   1 H    0.999 --    31 C    0.970
    33   1 H    0.997 --     1 C    0.982
    34   1 H    0.998 --     1 C    0.984
    35   1 H    0.997 --     1 C    0.982
    36   1 H    0.997 --     4 C    0.983
    37   1 H    0.998 --     4 C    0.984
    38   1 H    0.998 --     4 C    0.984
    39   1 H    0.998 --     6 C    0.984
    40   1 H    0.997 --     6 C    0.982
    41   1 H    0.997 --     6 C    0.982
    42   1 H    0.998 --     7 C    0.984
    43   1 H    0.997 --     7 C    0.983
    44   1 H    0.998 --     7 C    0.984
    45   1 H    0.999 --    11 C    0.966
    46   1 H    0.997 --    20 C    0.983
    47   1 H    0.998 --    20 C    0.985
    48   1 H    0.997 --    20 C    0.982
    49   1 H    0.997 --    21 C    0.983
    50   1 H    0.998 --    21 C    0.984
    51   1 H    0.998 --    21 C    0.984
    52   1 H    0.998 --    23 C    0.984
    53   1 H    0.997 --    23 C    0.983
    54   1 H    0.998 --    23 C    0.984
    55   1 H    0.998 --    24 C    0.985
    56   1 H    0.997 --    24 C    0.982
    57   1 H    0.997 --    24 C    0.983
    58   1 H    0.999 --    26 C    0.966
    59   1 H    0.999 --    29 C    0.970
    60   1 H    0.999 --    30 C    0.967
 ---------------------------------------------------------------------------

molecular dipole:
                 x           y           z       tot (Debye)
 q only:       -0.219      -0.607      -0.014
   full:       -0.110      -0.702      -0.078       1.816

           -------------------------------------------------
          | TOTAL ENERGY              -82.295260323688 Eh   |
          | GRADIENT NORM               0.000625598810 Eh/α |
          | HOMO-LUMO GAP               2.548738465020 eV   |
           -------------------------------------------------

 * finished run on 2022/07/09 at 18:33:09.152
