   * xtb version 6.5.0 (homebrew) compiled by 'nhattrup@GPGGRP-SHANNON.CHEME.CMU.EDU' on
          program call               : /opt/homebrew/bin/xtb bvl_bpin2_scan_6-3_xtb.xyz --chrg 0 --uhf 0 --opt --input xcontrol_bvl_bpin2_scan_6-3_xtb

   ID    Z sym.   atoms
    1    6 C      1, 2, 4-7, 10-12, 14, 16, 19-24, 26, 27, 29-31
    2    8 O      3, 8, 18, 25
    3    5 B      9, 17
    4    1 H      13, 15, 28, 32-60
constraining bond 12 31 to    2.1667000 Å, actual value:    2.0523944 Å
constraining bond 10 29 to    2.1667000 Å, actual value:    2.2761419 Å

          :  Hamiltonian                  GFN2-xTB          :
 * total energy  :   -82.1115404 Eh     change       -0.1767205E-08 Eh
 * total energy  :   -82.2438163 Eh     change       -0.1322759E+00 Eh
 * total energy  :   -82.2866767 Eh     change       -0.4286035E-01 Eh
 * total energy  :   -82.2874189 Eh     change       -0.7422305E-03 Eh
 * total energy  :   -82.2878058 Eh     change       -0.3868981E-03 Eh
 * total energy  :   -82.2839885 Eh     change        0.3817328E-02 Eh
 * total energy  :   -82.2884141 Eh     change       -0.4425639E-02 Eh
 * total energy  :   -82.2885932 Eh     change       -0.1791189E-03 Eh
 * total energy  :   -82.2887491 Eh     change       -0.1559181E-03 Eh
 * total energy  :   -82.2890142 Eh     change       -0.2651055E-03 Eh
 * total energy  :   -82.2893970 Eh     change       -0.1108957E-04 Eh
 * total energy  :   -82.2894134 Eh     change       -0.1638881E-04 Eh
 * total energy  :   -82.2894277 Eh     change       -0.1435022E-04 Eh
 * total energy  :   -82.2894452 Eh     change       -0.1750421E-04 Eh
 * total energy  :   -82.2894672 Eh     change       -0.2194563E-04 Eh
 * total energy  :   -82.2894872 Eh     change       -0.2005487E-04 Eh
 * total energy  :   -82.2894999 Eh     change       -0.1269125E-04 Eh
 * total energy  :   -82.2895067 Eh     change       -0.6803117E-05 Eh
 * total energy  :   -82.2895116 Eh     change       -0.4880047E-05 Eh
   *** GEOMETRY OPTIMIZATION CONVERGED AFTER 38 ITERATIONS ***

 final structure:
================
60
 xtb: 6.5.0 (homebrew)
C            3.51433580470547      -37.72287053586190       15.92003447952685
C            3.74105375452782      -38.17371584026491       17.36131015761330
O            3.25320477294103      -37.17592275259541       18.25630828046921
C            2.92431743665182      -39.44546052973402       17.62410409833247
C            5.24862204455720      -38.32046952448962       17.77986848020471
C            5.77813719914427      -39.75245195218800       17.79188466356843
C            6.18712207555982      -37.44468748314438       16.93950698409462
O            5.26919858462100      -37.79376299990168       19.10543224652355
B            4.13076866691330      -37.05810996517715       19.30359324527005
C            3.86104923320835      -36.21087423857040       20.57083466294319
C            4.89521633975297      -35.98729776846304       21.47741414122550
C            4.92479217099854      -35.16030148748048       22.57086186746029
H            5.86826209025175      -35.03754108989968       23.08401290813243
C            3.81018078329971      -34.27048393662797       23.05071588316306
H            4.04303712463239      -33.87368409973577       24.03940301380604
C            2.43767878649319      -34.87947625192096       23.09974787037000
B            1.69625727964977      -34.88351215037983       24.47231066058108
O            2.23286171464023      -34.38203191049870       25.62689642725567
C            1.37751179940878      -34.72501847459085       26.71626351142005
C            1.28049464560053      -33.54614469304184       27.68173134084709
C            2.03071687583996      -35.91183520109900       27.43619442137826
C            0.03200439499402      -35.11115984596469       26.00176070721112
C           -0.95385473290729      -33.93915297422372       25.91532945886470
C           -0.68402208406351      -36.32531682134002       26.58888185297995
O            0.44764435196239      -35.40332177836400       24.66776722066593
C            1.88459917954312      -35.44258243374696       22.02617723975402
C            2.49930094802548      -35.54094931602189       20.67507067460760
H            1.81026911373907      -36.03640081159164       19.99078057146140
C            3.02342243501588      -34.28741045674668       20.03963776953210
C            3.74758495907880      -33.29767104855334       20.67003268052393
C            4.10374543934736      -33.24102454739641       21.99819078051894
H            4.76453980041933      -32.44263557925829       22.30598986712260
H            2.44507871037052      -37.67815071205985       15.72852258917846
H            3.96569673093407      -38.43067614825272       15.23011211789089
H            3.92837910736986      -36.73470661055653       15.74775076017898
H            1.87146575742447      -39.21632280282993       17.47540262545135
H            3.05525027637123      -39.76939649489067       18.65361788417503
H            3.21156781682779      -40.24395090295867       16.94663571812824
H            5.69003422267219      -40.19415991778804       16.80298738810698
H            5.24244583152817      -40.36264442210818       18.51162191052718
H            6.82667313604536      -39.73704271673325       18.07874523478419
H            6.25959339443080      -37.81068864120443       15.91979220810991
H            7.17498246482407      -37.46370417356304       17.39416550245920
H            5.83876491182096      -36.41477707928943       16.93826287626608
H            5.81723664750447      -36.50515130879064       21.23792738140530
H            2.25660820097740      -33.37631777226922       28.12942528089438
H            0.56551425367732      -33.76498734371469       28.47028518171387
H            0.98478326749373      -32.63858553744820       27.16558685923158
H            3.02742477678872      -35.61593746997931       27.75561187749157
H            2.13287837332301      -36.75301832932406       26.75511988485255
H            1.45422505250579      -36.20961873182146       28.30684779452492
H           -1.34985691992761      -33.68545877879640       26.89411482276685
H           -1.77557135235937      -34.22754153346444       25.26392428204928
H           -0.46782472988400      -33.07119274880435       25.47692033743994
H           -0.92400951063365      -36.15176160657148       27.63443438787789
H           -0.07608225214869      -37.21965452401506       26.49909767648846
H           -1.60694811494025      -36.48935214207211       26.03830299194622
H            0.90173912075075      -35.88156589114737       22.13164797541795
H            2.91460646116855      -34.23944718573383       18.96665764320457
H            4.11905137651927      -32.49787997493906       20.03822063999639

          :  Hamiltonian                  GFN2-xTB          :
         :: total energy             -82.289511616013 Eh    ::
         :: gradient norm              0.000402089535 Eh/a0 ::
         :: HOMO-LUMO gap              2.165741391825 eV    ::
         :: SCC energy               -83.366823916404 Eh    ::
         :: -> dispersion             -0.062774531276 Eh    ::
         :: repulsion energy           1.076522584663 Eh    ::

    * Orbital Energies and Occupations

         #    Occupation            Energy/Eh            Energy/eV
      -------------------------------------------------------------
         1        2.0000           -0.6871163             -18.6974
       ...           ...                  ...                  ...
        63        2.0000           -0.4344777             -11.8227
        64        2.0000           -0.4315709             -11.7436
        65        2.0000           -0.4236259             -11.5274
        66        2.0000           -0.4209799             -11.4554
        67        2.0000           -0.4187259             -11.3941
        68        2.0000           -0.4153122             -11.3012
        69        2.0000           -0.4023505             -10.9485
        70        2.0000           -0.3966220             -10.7926
        71        2.0000           -0.3964474             -10.7879
        72        2.0000           -0.3926141             -10.6836
        73        2.0000           -0.3914511             -10.6519
        74        2.0000           -0.3603277              -9.8050
        75        2.0000           -0.3356672              -9.1340 (HOMO)
        76                         -0.2560777              -6.9682 (LUMO)
        77                         -0.2189622              -5.9583
        78                         -0.1868112              -5.0834
        79                         -0.1380568              -3.7567
        80                         -0.0967454              -2.6326
        81                         -0.0809619              -2.2031
        82                          0.0097194               0.2645
        83                          0.0121436               0.3304
        84                          0.0292910               0.7970
        85                          0.0298571               0.8125
        86                          0.0574184               1.5624
       ...                                ...                  ...
       144                          0.6833171              18.5940
      -------------------------------------------------------------
                  HL-Gap            0.0795895 Eh            2.1657 eV

     #   Z          covCN         q      C6AA      α(0)
     1   6 C        3.755    -0.117    22.787     6.807
     2   6 C        3.859     0.130    18.442     6.107
     3   8 O        1.638    -0.377    20.427     6.101
     4   6 C        3.755    -0.116    22.772     6.804
     5   6 C        3.860     0.130    18.442     6.107
     6   6 C        3.755    -0.117    22.799     6.808
     7   6 C        3.755    -0.115    22.760     6.802
     8   8 O        1.638    -0.375    20.386     6.095
     9   5 B        2.659     0.432    15.565     6.642
    10   6 C        3.051    -0.079    29.912     8.970
    11   6 C        2.892    -0.040    28.993     8.828
    12   6 C        3.076    -0.028    28.623     8.772
    13   1 H        0.926     0.028     2.613     2.528
    14   6 C        3.864    -0.012    20.745     6.477
    15   1 H        0.924     0.047     2.354     2.399
    16   6 C        2.864    -0.083    30.062     8.987
    17   5 B        2.662     0.431    15.561     6.639
    18   8 O        1.638    -0.371    20.312     6.084
    19   6 C        3.860     0.129    18.456     6.110
    20   6 C        3.755    -0.117    22.798     6.808
    21   6 C        3.755    -0.116    22.779     6.805
    22   6 C        3.860     0.129    18.455     6.109
    23   6 C        3.755    -0.116    22.785     6.806
    24   6 C        3.755    -0.118    22.806     6.809
    25   8 O        1.638    -0.370    20.287     6.080
    26   6 C        2.897    -0.026    28.655     8.777
    27   6 C        3.861    -0.010    20.712     6.472
    28   1 H        0.925     0.047     2.361     2.403
    29   6 C        3.079    -0.023    28.496     8.752
    30   6 C        2.888    -0.041    29.019     8.832
    31   6 C        3.078    -0.024    28.513     8.754
    32   1 H        0.926     0.029     2.599     2.521
    33   1 H        0.925     0.054     2.274     2.358
    34   1 H        0.925     0.039     2.461     2.453
    35   1 H        0.925     0.051     2.309     2.376
    36   1 H        0.925     0.052     2.301     2.372
    37   1 H        0.925     0.043     2.403     2.424
    38   1 H        0.925     0.042     2.424     2.435
    39   1 H        0.925     0.039     2.458     2.452
    40   1 H        0.925     0.052     2.295     2.369
    41   1 H        0.925     0.054     2.271     2.357
    42   1 H        0.925     0.042     2.422     2.434
    43   1 H        0.925     0.051     2.302     2.373
    44   1 H        0.925     0.042     2.419     2.432
    45   1 H        0.925     0.034     2.525     2.485
    46   1 H        0.925     0.054     2.269     2.356
    47   1 H        0.925     0.040     2.454     2.450
    48   1 H        0.925     0.052     2.296     2.369
    49   1 H        0.925     0.052     2.296     2.370
    50   1 H        0.925     0.044     2.398     2.422
    51   1 H        0.925     0.042     2.418     2.432
    52   1 H        0.925     0.043     2.414     2.430
    53   1 H        0.925     0.052     2.289     2.366
    54   1 H        0.925     0.044     2.399     2.422
    55   1 H        0.925     0.040     2.451     2.448
    56   1 H        0.925     0.052     2.292     2.367
    57   1 H        0.925     0.055     2.264     2.353
    58   1 H        0.925     0.038     2.479     2.462
    59   1 H        0.926     0.033     2.539     2.492
    60   1 H        0.925     0.024     2.671     2.556

Wiberg/Mayer (AO) data.
largest (>0.10) Wiberg bond orders for each atom

     #   Z sym  total        # sym  WBO       # sym  WBO       # sym  WBO
 ---------------------------------------------------------------------------
     1   6 C    3.994 --     2 C    0.997    34 H    0.985    33 H    0.983
                            35 H    0.982
     2   6 C    3.944 --     1 C    0.997     4 C    0.990     3 O    0.954
                             5 C    0.937
     3   8 O    2.219 --     9 B    1.114     2 C    0.954
     4   6 C    3.994 --     2 C    0.990    38 H    0.985    37 H    0.984
                            36 H    0.983
     5   6 C    3.943 --     6 C    0.997     7 C    0.990     8 O    0.954
                             2 C    0.937
     6   6 C    3.994 --     5 C    0.997    39 H    0.985    41 H    0.983
                            40 H    0.982
     7   6 C    3.994 --     5 C    0.990    42 H    0.985    44 H    0.984
                            43 H    0.983
     8   8 O    2.222 --     9 B    1.118     5 C    0.954
     9   5 B    3.386 --     8 O    1.118     3 O    1.114    10 C    1.024
    10   6 C    3.938 --    11 C    1.402     9 B    1.024    27 C    0.937
                            29 C    0.305    31 C    0.145
    11   6 C    3.991 --    12 C    1.516    10 C    1.402    45 H    0.961
    12   6 C    3.960 --    11 C    1.516    13 H    0.972    14 C    0.963
                            31 C    0.287    29 C    0.139
    13   1 H    0.999 --    12 C    0.972
    14   6 C    3.990 --    16 C    0.996    31 C    0.974    15 H    0.969
                            12 C    0.963
    15   1 H    0.998 --    14 C    0.969
    16   6 C    3.977 --    26 C    1.852    17 B    0.999    14 C    0.996
    17   5 B    3.376 --    25 O    1.132    18 O    1.128    16 C    0.999
    18   8 O    2.233 --    17 B    1.128    19 C    0.953
    19   6 C    3.943 --    20 C    0.997    21 C    0.991    18 O    0.953
                            22 C    0.937
    20   6 C    3.994 --    19 C    0.997    47 H    0.985    46 H    0.983
                            48 H    0.982
    21   6 C    3.994 --    19 C    0.991    51 H    0.984    50 H    0.984
                            49 H    0.983
    22   6 C    3.942 --    24 C    0.996    23 C    0.991    25 O    0.953
                            19 C    0.937
    23   6 C    3.995 --    22 C    0.991    52 H    0.984    54 H    0.984
                            53 H    0.983
    24   6 C    3.994 --    22 C    0.996    55 H    0.984    57 H    0.983
                            56 H    0.982
    25   8 O    2.236 --    17 B    1.132    22 C    0.953
    26   6 C    3.987 --    16 C    1.852    27 C    1.018    58 H    0.966
    27   6 C    3.990 --    26 C    1.018    29 C    0.975    28 H    0.969
                            10 C    0.937
    28   1 H    0.998 --    27 C    0.969
    29   6 C    3.954 --    30 C    1.458    27 C    0.975    59 H    0.973
                            10 C    0.305    12 C    0.139
    30   6 C    3.991 --    31 C    1.481    29 C    1.458    60 H    0.963
    31   6 C    3.947 --    30 C    1.481    14 C    0.974    32 H    0.973
                            12 C    0.287    10 C    0.145
    32   1 H    0.999 --    31 C    0.973
    33   1 H    0.997 --     1 C    0.983
    34   1 H    0.998 --     1 C    0.985
    35   1 H    0.997 --     1 C    0.982
    36   1 H    0.997 --     4 C    0.983
    37   1 H    0.998 --     4 C    0.984
    38   1 H    0.998 --     4 C    0.985
    39   1 H    0.998 --     6 C    0.985
    40   1 H    0.997 --     6 C    0.982
    41   1 H    0.997 --     6 C    0.983
    42   1 H    0.998 --     7 C    0.985
    43   1 H    0.997 --     7 C    0.983
    44   1 H    0.998 --     7 C    0.984
    45   1 H    0.999 --    11 C    0.961
    46   1 H    0.997 --    20 C    0.983
    47   1 H    0.998 --    20 C    0.985
    48   1 H    0.997 --    20 C    0.982
    49   1 H    0.997 --    21 C    0.983
    50   1 H    0.998 --    21 C    0.984
    51   1 H    0.998 --    21 C    0.984
    52   1 H    0.998 --    23 C    0.984
    53   1 H    0.997 --    23 C    0.983
    54   1 H    0.998 --    23 C    0.984
    55   1 H    0.998 --    24 C    0.984
    56   1 H    0.997 --    24 C    0.982
    57   1 H    0.997 --    24 C    0.983
    58   1 H    0.998 --    26 C    0.966
    59   1 H    0.998 --    29 C    0.973
    60   1 H    0.999 --    30 C    0.963
 ---------------------------------------------------------------------------

molecular dipole:
                 x           y           z       tot (Debye)
 q only:       -0.264      -0.301       0.128
   full:       -0.085      -0.352      -0.009       0.920

           -------------------------------------------------
          | TOTAL ENERGY              -82.289511616013 Eh   |
          | GRADIENT NORM               0.000402089535 Eh/α |
          | HOMO-LUMO GAP               2.165741391825 eV   |
           -------------------------------------------------

 * finished run on 2022/07/09 at 18:33:22.460
