   * xtb version 6.5.0 (homebrew) compiled by 'nhattrup@GPGGRP-SHANNON.CHEME.CMU.EDU' on
          program call               : /opt/homebrew/bin/xtb bvl_bpin2_scan_4-1_xtb.xyz --chrg 0 --uhf 0 --opt --input xcontrol_bvl_bpin2_scan_4-1_xtb

   ID    Z sym.   atoms
    1    6 C      1, 2, 4-7, 10-12, 14, 16, 19-24, 26, 27, 29-31
    2    8 O      3, 8, 18, 25
    3    5 B      9, 17
    4    1 H      13, 15, 28, 32-60
constraining bond 12 31 to    1.9444000 Å, actual value:    1.8267186 Å
constraining bond 10 29 to    2.3889000 Å, actual value:    2.4983930 Å

          :  Hamiltonian                  GFN2-xTB          :
 * total energy  :   -82.1168564 Eh     change       -0.2100563E-08 Eh
 * total energy  :   -82.2469734 Eh     change       -0.1301170E+00 Eh
 * total energy  :   -82.2908922 Eh     change       -0.4391872E-01 Eh
 * total energy  :   -82.2916345 Eh     change       -0.7423377E-03 Eh
 * total energy  :   -82.2917188 Eh     change       -0.8427224E-04 Eh
 * total energy  :   -82.2878564 Eh     change        0.3862420E-02 Eh
 * total energy  :   -82.2925631 Eh     change       -0.4706779E-02 Eh
 * total energy  :   -82.2927331 Eh     change       -0.1699594E-03 Eh
 * total energy  :   -82.2930098 Eh     change       -0.2766791E-03 Eh
 * total energy  :   -82.2932839 Eh     change       -0.2741541E-03 Eh
 * total energy  :   -82.2940820 Eh     change       -0.8871870E-05 Eh
 * total energy  :   -82.2940889 Eh     change       -0.6874722E-05 Eh
 * total energy  :   -82.2940962 Eh     change       -0.7333364E-05 Eh
 * total energy  :   -82.2941057 Eh     change       -0.9496295E-05 Eh
 * total energy  :   -82.2941169 Eh     change       -0.1118354E-04 Eh
 * total energy  :   -82.2941272 Eh     change       -0.1029937E-04 Eh
 * total energy  :   -82.2941358 Eh     change       -0.8583132E-05 Eh
 * total energy  :   -82.2941439 Eh     change       -0.8153167E-05 Eh
 * total energy  :   -82.2941464 Eh     change       -0.2454616E-05 Eh
   *** GEOMETRY OPTIMIZATION CONVERGED AFTER 44 ITERATIONS ***

 final structure:
================
60
 xtb: 6.5.0 (homebrew)
C            3.39954757563245      -37.94292133807468       16.04758654525603
C            3.65250117414452      -38.23209535450462       17.52565013146456
O            3.24459084483213      -37.11225638801947       18.30799605432598
C            2.78199023179900      -39.41858217618253       17.96004112296072
C            5.16465199493166      -38.40915919544966       17.91725617615267
C            5.61729890721454      -39.85636431238355       18.09941974536915
C            6.11915584898026      -37.70458014785105       16.94431170135248
O            5.25969180591443      -37.72137838678240       19.16301379804803
B            4.16269128091898      -36.91246045699613       19.30555285566015
C            3.97284616707960      -35.91418629718471       20.47604724219659
C            5.00221336221448      -35.66861922504253       21.33279014098260
C            5.05355235588312      -34.78463928719433       22.42903823056291
H            6.00746568086351      -34.64667896999895       22.91510955065447
C            3.88599629380894      -34.08150638832956       23.07400073189496
H            4.10814721296064      -33.77887838333667       24.09550283236011
C            2.53352977519870      -34.70998187589294       23.02031071609290
B            1.76042903963311      -34.85168433463711       24.36886696054837
O            2.25562805317264      -34.42790248446672       25.57229889647951
C            1.38856866666506      -34.88095716876649       26.61110256896976
C            1.22473517450849      -33.77961112164748       27.65609044715712
C            2.07044335361462      -36.09198421366460       27.26056436817321
C            0.07448995264729      -35.26157141941319       25.83636581869806
C           -0.96069909655612      -34.12964570255675       25.82458498028660
C           -0.59971904890756      -36.54925615170568       26.30473276428989
O            0.52707267006450      -35.42522670876689       24.49240770089826
C            2.00958609874733      -35.17197665855089       21.88301413751640
C            2.66106899818101      -35.13511769769568       20.53740271757917
H            1.98322093291352      -35.57590228639549       19.80423064478478
C            3.04388917967439      -33.75359040486270       20.06484756596548
C            3.80253230970853      -32.88238953530261       20.75756546777145
C            4.29254331315177      -33.03574683545211       22.07710348797406
H            4.98640778944582      -32.29142538994812       22.43797596055530
H            2.32830209843611      -37.85388123627921       15.88445012884864
H            3.78214271425674      -38.75519484600602       15.43540499733894
H            3.86417645811473      -37.01036756009045       15.74426173248205
H            1.73793074459420      -39.15590821823993       17.80502712536420
H            2.92379174342517      -39.61926194580987       19.01907664027866
H            3.01230913320135      -40.30830902870895       17.38174906570425
H            5.46836530639993      -40.41611417786108       17.17994319076476
H            5.07751367178591      -40.33662655952821       18.90902316974248
H            6.67535933337882      -39.86488072016599       18.34927635169193
H            6.13594763665664      -38.20269418305417       15.97952910802750
H            7.11982307084992      -37.72277978336859       17.37013375707007
H            5.82763517274069      -36.66488575301089       16.81827120684515
H            5.92387427362155      -36.20389725971779       21.13244924496515
H            2.18181617028046      -33.61104451163325       28.14358458174422
H            0.49668450329565      -34.07823324613160       28.40541782392301
H            0.91209253379401      -32.84704184454851       27.19772205814552
H            3.04552609368121      -35.78227607200866       27.62978164683593
H            2.22491605173079      -36.87547117022425       26.52293273981934
H            1.48394921910804      -36.47582215887144       28.08981251380392
H           -1.38338709523423      -33.97339999568513       26.81255493782334
H           -1.75832830819950      -34.39950605481374       25.13639326217201
H           -0.50722439097008      -33.20871100515784       25.46705501843165
H           -0.87979424466785      -36.46826986854327       27.35156461934784
H            0.05222362528572      -37.40577644659906       26.16809083479273
H           -1.49634802755805      -36.71134272494176       25.71177171672061
H            1.02947584098101      -35.62708156723225       21.92975134313627
H            2.78941952490705      -33.52193476442234       19.04099784735340
H            4.10948924707176      -31.96800100030363       20.26100127384117

          :  Hamiltonian                  GFN2-xTB          :
         :: total energy             -82.294146397334 Eh    ::
         :: gradient norm              0.000455774875 Eh/a0 ::
         :: HOMO-LUMO gap              2.441534460916 eV    ::
         :: SCC energy               -83.369053037472 Eh    ::
         :: -> dispersion             -0.061493313947 Eh    ::
         :: repulsion energy           1.073977146921 Eh    ::

    * Orbital Energies and Occupations

         #    Occupation            Energy/Eh            Energy/eV
      -------------------------------------------------------------
         1        2.0000           -0.6877998             -18.7160
       ...           ...                  ...                  ...
        63        2.0000           -0.4362158             -11.8700
        64        2.0000           -0.4288183             -11.6687
        65        2.0000           -0.4269410             -11.6177
        66        2.0000           -0.4200378             -11.4298
        67        2.0000           -0.4183804             -11.3847
        68        2.0000           -0.4129453             -11.2368
        69        2.0000           -0.4034342             -10.9780
        70        2.0000           -0.3974396             -10.8149
        71        2.0000           -0.3942647             -10.7285
        72        2.0000           -0.3929796             -10.6935
        73        2.0000           -0.3915476             -10.6546
        74        2.0000           -0.3602426              -9.8027
        75        2.0000           -0.3349705              -9.1150 (HOMO)
        76                         -0.2452458              -6.6735 (LUMO)
        77                         -0.2187614              -5.9528
        78                         -0.1886414              -5.1332
        79                         -0.1251268              -3.4049
        80                         -0.0980770              -2.6688
        81                         -0.0773920              -2.1059
        82                          0.0086460               0.2353
        83                          0.0144047               0.3920
        84                          0.0285254               0.7762
        85                          0.0315052               0.8573
        86                          0.0567232               1.5435
       ...                                ...                  ...
       144                          0.6794698              18.4893
      -------------------------------------------------------------
                  HL-Gap            0.0897247 Eh            2.4415 eV

     #   Z          covCN         q      C6AA      α(0)
     1   6 C        3.755    -0.117    22.788     6.807
     2   6 C        3.859     0.129    18.448     6.108
     3   8 O        1.638    -0.374    20.366     6.092
     4   6 C        3.755    -0.116    22.768     6.804
     5   6 C        3.858     0.129    18.446     6.108
     6   6 C        3.755    -0.117    22.794     6.808
     7   6 C        3.755    -0.115    22.764     6.803
     8   8 O        1.638    -0.376    20.396     6.096
     9   5 B        2.659     0.430    15.582     6.646
    10   6 C        2.883    -0.088    30.215     9.012
    11   6 C        2.893    -0.033    28.830     8.803
    12   6 C        3.501    -0.021    22.600     7.053
    13   1 H        0.926     0.032     2.564     2.504
    14   6 C        3.863    -0.007    20.658     6.463
    15   1 H        0.925     0.048     2.339     2.392
    16   6 C        2.863    -0.085    30.133     8.998
    17   5 B        2.661     0.431    15.567     6.642
    18   8 O        1.638    -0.373    20.341     6.088
    19   6 C        3.859     0.129    18.456     6.110
    20   6 C        3.755    -0.117    22.800     6.808
    21   6 C        3.755    -0.116    22.781     6.806
    22   6 C        3.860     0.129    18.457     6.110
    23   6 C        3.755    -0.117    22.787     6.807
    24   6 C        3.755    -0.118    22.809     6.810
    25   8 O        1.638    -0.369    20.272     6.078
    26   6 C        2.899    -0.024    28.598     8.768
    27   6 C        3.861    -0.016    20.821     6.489
    28   1 H        0.924     0.046     2.372     2.408
    29   6 C        2.910    -0.034    28.857     8.809
    30   6 C        2.888    -0.039    28.957     8.822
    31   6 C        3.503    -0.018    22.498     7.032
    32   1 H        0.926     0.032     2.562     2.503
    33   1 H        0.925     0.054     2.275     2.359
    34   1 H        0.925     0.039     2.467     2.456
    35   1 H        0.925     0.051     2.307     2.375
    36   1 H        0.925     0.051     2.303     2.373
    37   1 H        0.925     0.043     2.406     2.426
    38   1 H        0.925     0.041     2.431     2.438
    39   1 H        0.925     0.039     2.463     2.454
    40   1 H        0.925     0.052     2.300     2.372
    41   1 H        0.925     0.053     2.278     2.360
    42   1 H        0.925     0.042     2.427     2.436
    43   1 H        0.925     0.051     2.307     2.375
    44   1 H        0.925     0.043     2.412     2.429
    45   1 H        0.925     0.036     2.507     2.476
    46   1 H        0.925     0.054     2.271     2.357
    47   1 H        0.925     0.040     2.450     2.448
    48   1 H        0.925     0.052     2.295     2.369
    49   1 H        0.925     0.052     2.297     2.370
    50   1 H        0.925     0.044     2.398     2.422
    51   1 H        0.925     0.043     2.415     2.430
    52   1 H        0.925     0.043     2.412     2.429
    53   1 H        0.925     0.053     2.285     2.364
    54   1 H        0.925     0.044     2.398     2.421
    55   1 H        0.925     0.040     2.449     2.447
    56   1 H        0.925     0.052     2.293     2.368
    57   1 H        0.925     0.055     2.260     2.351
    58   1 H        0.925     0.037     2.483     2.464
    59   1 H        0.926     0.028     2.618     2.530
    60   1 H        0.925     0.025     2.662     2.551

Wiberg/Mayer (AO) data.
largest (>0.10) Wiberg bond orders for each atom

     #   Z sym  total        # sym  WBO       # sym  WBO       # sym  WBO
 ---------------------------------------------------------------------------
     1   6 C    3.994 --     2 C    0.996    34 H    0.985    33 H    0.983
                            35 H    0.982
     2   6 C    3.944 --     1 C    0.996     4 C    0.990     3 O    0.955
                             5 C    0.936
     3   8 O    2.224 --     9 B    1.118     2 C    0.955
     4   6 C    3.994 --     2 C    0.990    38 H    0.985    37 H    0.984
                            36 H    0.983
     5   6 C    3.943 --     6 C    0.996     7 C    0.990     8 O    0.955
                             2 C    0.936
     6   6 C    3.994 --     5 C    0.996    39 H    0.985    41 H    0.983
                            40 H    0.982
     7   6 C    3.995 --     5 C    0.990    42 H    0.985    44 H    0.984
                            43 H    0.983
     8   8 O    2.222 --     9 B    1.117     5 C    0.955
     9   5 B    3.381 --     3 O    1.118     8 O    1.117    10 C    1.020
    10   6 C    3.965 --    11 C    1.625     9 B    1.020    27 C    0.953
                            31 C    0.114    29 C    0.112
    11   6 C    3.990 --    10 C    1.625    12 C    1.279    45 H    0.960
    12   6 C    3.938 --    11 C    1.279    13 H    0.974    14 C    0.939
                            31 C    0.553    29 C    0.112
    13   1 H    0.999 --    12 C    0.974
    14   6 C    3.980 --    16 C    1.016    15 H    0.967    31 C    0.958
                            12 C    0.939
    15   1 H    0.997 --    14 C    0.967
    16   6 C    3.977 --    26 C    1.839    14 C    1.016    17 B    0.999
    17   5 B    3.377 --    25 O    1.134    18 O    1.127    16 C    0.999
    18   8 O    2.232 --    17 B    1.127    19 C    0.953
    19   6 C    3.943 --    20 C    0.997    21 C    0.991    18 O    0.953
                            22 C    0.936
    20   6 C    3.994 --    19 C    0.997    47 H    0.984    46 H    0.983
                            48 H    0.982
    21   6 C    3.994 --    19 C    0.991    51 H    0.984    50 H    0.984
                            49 H    0.983
    22   6 C    3.942 --    24 C    0.996    23 C    0.991    25 O    0.952
                            19 C    0.936
    23   6 C    3.995 --    22 C    0.991    52 H    0.984    54 H    0.984
                            53 H    0.983
    24   6 C    3.994 --    22 C    0.996    55 H    0.985    57 H    0.982
                            56 H    0.982
    25   8 O    2.237 --    17 B    1.134    22 C    0.952
    26   6 C    3.986 --    16 C    1.839    27 C    1.006    58 H    0.967
    27   6 C    3.994 --    26 C    1.006    29 C    0.980    28 H    0.971
                            10 C    0.953
    28   1 H    0.998 --    27 C    0.971
    29   6 C    3.979 --    30 C    1.702    27 C    0.980    59 H    0.971
                            12 C    0.112    10 C    0.112
    30   6 C    3.991 --    29 C    1.702    31 C    1.245    60 H    0.963
    31   6 C    3.927 --    30 C    1.245    32 H    0.975    14 C    0.958
                            12 C    0.553    10 C    0.114
    32   1 H    0.999 --    31 C    0.975
    33   1 H    0.997 --     1 C    0.983
    34   1 H    0.998 --     1 C    0.985
    35   1 H    0.997 --     1 C    0.982
    36   1 H    0.997 --     4 C    0.983
    37   1 H    0.998 --     4 C    0.984
    38   1 H    0.998 --     4 C    0.985
    39   1 H    0.998 --     6 C    0.985
    40   1 H    0.997 --     6 C    0.982
    41   1 H    0.997 --     6 C    0.983
    42   1 H    0.998 --     7 C    0.985
    43   1 H    0.997 --     7 C    0.983
    44   1 H    0.998 --     7 C    0.984
    45   1 H    0.999 --    11 C    0.960
    46   1 H    0.997 --    20 C    0.983
    47   1 H    0.998 --    20 C    0.984
    48   1 H    0.997 --    20 C    0.982
    49   1 H    0.997 --    21 C    0.983
    50   1 H    0.998 --    21 C    0.984
    51   1 H    0.998 --    21 C    0.984
    52   1 H    0.998 --    23 C    0.984
    53   1 H    0.997 --    23 C    0.983
    54   1 H    0.998 --    23 C    0.984
    55   1 H    0.998 --    24 C    0.985
    56   1 H    0.997 --    24 C    0.982
    57   1 H    0.997 --    24 C    0.982
    58   1 H    0.998 --    26 C    0.967
    59   1 H    0.999 --    29 C    0.971
    60   1 H    0.999 --    30 C    0.963
 ---------------------------------------------------------------------------

molecular dipole:
                 x           y           z       tot (Debye)
 q only:       -0.241      -0.370       0.319
   full:       -0.093      -0.442       0.249       1.310

           -------------------------------------------------
          | TOTAL ENERGY              -82.294146397334 Eh   |
          | GRADIENT NORM               0.000455774875 Eh/α |
          | HOMO-LUMO GAP               2.441534460916 eV   |
           -------------------------------------------------

 * finished run on 2022/07/09 at 18:33:04.680
