   * xtb version 6.5.0 (homebrew) compiled by 'nhattrup@GPGGRP-SHANNON.CHEME.CMU.EDU' on
          program call               : /opt/homebrew/bin/xtb bvl_bpin2_scan_1-4_xtb.xyz --chrg 0 --uhf 0 --opt --input xcontrol_bvl_bpin2_scan_1-4_xtb

   ID    Z sym.   atoms
    1    6 C      1, 2, 4-7, 10-12, 14, 16, 19-24, 26, 27, 29-31
    2    8 O      3, 8, 18, 25
    3    5 B      9, 17
    4    1 H      13, 15, 28, 32-60
constraining bond 12 31 to    1.6111000 Å, actual value:    1.5028897 Å
constraining bond 10 29 to    2.0556000 Å, actual value:    2.1701322 Å

          :  Hamiltonian                  GFN2-xTB          :
 * total energy  :   -82.1368144 Eh     change       -0.1104397E-08 Eh
 * total energy  :   -82.2592110 Eh     change       -0.1223966E+00 Eh
 * total energy  :   -82.3071349 Eh     change       -0.4792390E-01 Eh
 * total energy  :   -82.3078079 Eh     change       -0.6730388E-03 Eh
 * total energy  :   -82.3047837 Eh     change        0.3024179E-02 Eh
 * total energy  :   -82.3082690 Eh     change       -0.3485245E-02 Eh
 * total energy  :   -82.3084880 Eh     change       -0.2189851E-03 Eh
 * total energy  :   -82.3086768 Eh     change       -0.1888736E-03 Eh
 * total energy  :   -82.3088244 Eh     change       -0.1475234E-03 Eh
 * total energy  :   -82.3089751 Eh     change       -0.1506853E-03 Eh
 * total energy  :   -82.3096573 Eh     change       -0.2010476E-04 Eh
 * total energy  :   -82.3096737 Eh     change       -0.1640942E-04 Eh
 * total energy  :   -82.3096888 Eh     change       -0.1510383E-04 Eh
 * total energy  :   -82.3097043 Eh     change       -0.1554486E-04 Eh
 * total energy  :   -82.3097202 Eh     change       -0.1582797E-04 Eh
 * total energy  :   -82.3097345 Eh     change       -0.1435625E-04 Eh
 * total energy  :   -82.3097462 Eh     change       -0.1164955E-04 Eh
 * total energy  :   -82.3097554 Eh     change       -0.9232209E-05 Eh
 * total energy  :   -82.3097575 Eh     change       -0.2112873E-05 Eh
   *** GEOMETRY OPTIMIZATION CONVERGED AFTER 44 ITERATIONS ***

 final structure:
================
60
 xtb: 6.5.0 (homebrew)
C            3.42948992361309      -37.83509762524362       15.98074633423113
C            3.68894882102237      -38.19932901538917       17.44106270222221
O            3.23146247547613      -37.14236184611404       18.28286225762556
C            2.86461250198044      -39.44187310204614       17.80125649974762
C            5.20683712514850      -38.33524016004643       17.83056106134528
C            5.71116646520764      -39.77072596947846       17.96275664381398
C            6.13917051951119      -37.56186860160766       16.88944588280222
O            5.27539364313260      -37.69024056767109       19.10207511935335
B            4.14430329771055      -36.94437681338309       19.28222142642551
C            3.91956122568200      -35.97591472131226       20.48447843416119
C            4.94571179348090      -35.76054449394680       21.34837883995703
C            5.00974576566643      -34.77060673141690       22.38829892547844
H            5.95388729410783      -34.72853136826166       22.91705461049549
C            3.83341802338643      -34.18021845183578       23.12184492573405
H            4.07758002401145      -33.82307708179825       24.11636855543324
C            2.48512746482069      -34.79480365673613       23.09043109486705
B            1.71428874967447      -34.86628601262159       24.44656061945857
O            2.21744290662487      -34.39605791600552       25.62896801823764
C            1.35035374780254      -34.79791768204296       26.68867927600889
C            1.20208437684567      -33.65416079076867       27.68934315396163
C            2.02297118171865      -35.98902785914967       27.38315685417850
C            0.02957398432714      -35.19615886898153       25.93495321104484
C           -0.99216583150943      -34.05352453307936       25.87737160079811
C           -0.65761325951335      -36.45453504785300       26.46052573506702
O            0.47599796650825      -35.42267580142016       24.59807694797253
C            1.94686226266296      -35.30641034666174       21.98170952502905
C            2.56020919610335      -35.35879595362951       20.62653785674626
H            1.86847557243351      -35.82586337433161       19.92661217022969
C            3.13789907330049      -34.12334985560141       20.04218700510417
C            3.86501816680448      -33.19289681651658       20.68735850135382
C            4.39619321866586      -33.32814424240820       22.02122223232985
H            5.00739006754578      -32.49675610726143       22.35055064210815
H            2.35611159305397      -37.77531340633149       15.81838305309781
H            3.84236908473905      -38.59660493770323       15.32472774155396
H            3.86086457859656      -36.87062649125740       15.73317271970889
H            1.81203194275218      -39.21323989124616       17.65007886431277
H            3.00558842912973      -39.69565054513189       18.84887104386187
H            3.13542886467449      -40.28802480019633       17.17706710940624
H            5.59074687199630      -40.30052546284922       17.02169673458955
H            5.18330007041688      -40.30081597721703       18.74872906745843
H            6.76664505325277      -39.74948489442290       18.22233931952807
H            6.17083381227329      -38.01784071356730       15.90449693069861
H            7.13987726488029      -37.56825216134420       17.31534531479745
H            5.81735143423483      -36.52681436838128       16.80725296630213
H            5.88178221683281      -36.25207107355843       21.11598514795709
H            2.16330371125864      -33.47518234684696       28.16482197734065
H            0.47535022715971      -33.91589275658035       28.45362314115429
H            0.89549692616607      -32.73780270280715       27.19559050133820
H            3.00360617294606      -35.67526515062094       27.73375933425461
H            2.16439424728562      -36.80354218801034       26.67718287763452
H            1.43751216997980      -36.33235172195026       28.23068958936635
H           -1.41017975437744      -33.85047264499878       26.85879369245967
H           -1.79484282528782      -34.34271396072488       25.20301152940732
H           -0.52858816931523      -33.15414617284588       25.48008266390924
H           -0.92853331205390      -36.32693483021752       27.50511405693737
H           -0.01746499582942      -37.32425505748413       26.35472887416849
H           -1.56079345482094      -36.62934827607309       25.88126197051687
H            0.96143589656060      -35.74473834926314       22.05974498094795
H            2.92463583852796      -33.96306493979696       18.99273986794768
H            4.25402836102185      -32.35868276395126       20.11686226599933

          :  Hamiltonian                  GFN2-xTB          :
         :: total energy             -82.309757513379 Eh    ::
         :: gradient norm              0.000456630272 Eh/a0 ::
         :: HOMO-LUMO gap              3.094106181701 eV    ::
         :: SCC energy               -83.390972263466 Eh    ::
         :: -> dispersion             -0.061605012779 Eh    ::
         :: repulsion energy           1.080453215077 Eh    ::

    * Orbital Energies and Occupations

         #    Occupation            Energy/Eh            Energy/eV
      -------------------------------------------------------------
         1        2.0000           -0.6882563             -18.7284
       ...           ...                  ...                  ...
        63        2.0000           -0.4369518             -11.8901
        64        2.0000           -0.4316241             -11.7451
        65        2.0000           -0.4303684             -11.7109
        66        2.0000           -0.4204664             -11.4415
        67        2.0000           -0.4194323             -11.4133
        68        2.0000           -0.4138538             -11.2615
        69        2.0000           -0.4075072             -11.0888
        70        2.0000           -0.3976088             -10.8195
        71        2.0000           -0.3975484             -10.8178
        72        2.0000           -0.3955993             -10.7648
        73        2.0000           -0.3827814             -10.4160
        74        2.0000           -0.3617715              -9.8443
        75        2.0000           -0.3372378              -9.1767 (HOMO)
        76                         -0.2235315              -6.0826 (LUMO)
        77                         -0.2111658              -5.7461
        78                         -0.1791836              -4.8758
        79                         -0.1030309              -2.8036
        80                         -0.0906046              -2.4655
        81                         -0.0042255              -0.1150
        82                          0.0086212               0.2346
        83                          0.0092319               0.2512
        84                          0.0283471               0.7714
        85                          0.0291157               0.7923
        86                          0.0572508               1.5579
       ...                                ...                  ...
       144                          0.6937165              18.8770
      -------------------------------------------------------------
                  HL-Gap            0.1137063 Eh            3.0941 eV

     #   Z          covCN         q      C6AA      α(0)
     1   6 C        3.755    -0.117    22.793     6.807
     2   6 C        3.858     0.129    18.453     6.109
     3   8 O        1.638    -0.373    20.336     6.087
     4   6 C        3.755    -0.116    22.776     6.805
     5   6 C        3.858     0.129    18.451     6.109
     6   6 C        3.755    -0.118    22.806     6.809
     7   6 C        3.755    -0.116    22.773     6.804
     8   8 O        1.638    -0.373    20.342     6.088
     9   5 B        2.659     0.433    15.549     6.639
    10   6 C        3.234    -0.074    28.916     8.727
    11   6 C        2.894    -0.046    29.138     8.850
    12   6 C        3.848    -0.012    20.763     6.481
    13   1 H        0.925     0.030     2.581     2.512
    14   6 C        3.864    -0.018    20.851     6.493
    15   1 H        0.925     0.043     2.412     2.429
    16   6 C        2.863    -0.083    30.084     8.991
    17   5 B        2.662     0.432    15.551     6.638
    18   8 O        1.638    -0.373    20.345     6.089
    19   6 C        3.860     0.129    18.454     6.109
    20   6 C        3.755    -0.117    22.799     6.808
    21   6 C        3.755    -0.116    22.779     6.805
    22   6 C        3.860     0.129    18.455     6.109
    23   6 C        3.755    -0.116    22.785     6.806
    24   6 C        3.755    -0.118    22.806     6.809
    25   8 O        1.638    -0.370    20.286     6.080
    26   6 C        2.897    -0.028    28.698     8.783
    27   6 C        3.866    -0.014    20.788     6.484
    28   1 H        0.925     0.044     2.400     2.423
    29   6 C        3.261    -0.021    27.322     8.444
    30   6 C        2.889    -0.054    29.351     8.882
    31   6 C        3.850    -0.010    20.723     6.475
    32   1 H        0.925     0.030     2.583     2.513
    33   1 H        0.925     0.054     2.266     2.354
    34   1 H        0.925     0.040     2.455     2.450
    35   1 H        0.925     0.051     2.303     2.373
    36   1 H        0.925     0.052     2.292     2.368
    37   1 H        0.925     0.044     2.400     2.422
    38   1 H        0.925     0.042     2.419     2.432
    39   1 H        0.925     0.040     2.449     2.447
    40   1 H        0.925     0.052     2.294     2.369
    41   1 H        0.925     0.054     2.265     2.354
    42   1 H        0.925     0.043     2.414     2.430
    43   1 H        0.925     0.052     2.292     2.368
    44   1 H        0.925     0.043     2.405     2.425
    45   1 H        0.925     0.033     2.546     2.495
    46   1 H        0.925     0.054     2.270     2.356
    47   1 H        0.925     0.040     2.452     2.449
    48   1 H        0.925     0.052     2.294     2.369
    49   1 H        0.925     0.052     2.296     2.369
    50   1 H        0.925     0.044     2.399     2.422
    51   1 H        0.925     0.042     2.416     2.431
    52   1 H        0.925     0.043     2.413     2.429
    53   1 H        0.925     0.053     2.287     2.365
    54   1 H        0.925     0.044     2.397     2.421
    55   1 H        0.925     0.040     2.450     2.448
    56   1 H        0.925     0.052     2.294     2.368
    57   1 H        0.925     0.055     2.262     2.352
    58   1 H        0.925     0.037     2.496     2.470
    59   1 H        0.925     0.027     2.633     2.537
    60   1 H        0.925     0.021     2.724     2.581

Wiberg/Mayer (AO) data.
largest (>0.10) Wiberg bond orders for each atom

     #   Z sym  total        # sym  WBO       # sym  WBO       # sym  WBO
 ---------------------------------------------------------------------------
     1   6 C    3.994 --     2 C    0.997    34 H    0.985    33 H    0.983
                            35 H    0.982
     2   6 C    3.943 --     1 C    0.997     4 C    0.991     3 O    0.953
                             5 C    0.936
     3   8 O    2.231 --     9 B    1.126     2 C    0.953
     4   6 C    3.994 --     2 C    0.991    38 H    0.984    37 H    0.984
                            36 H    0.983
     5   6 C    3.942 --     6 C    0.996     7 C    0.991     8 O    0.952
                             2 C    0.936
     6   6 C    3.994 --     5 C    0.996    39 H    0.984    41 H    0.983
                            40 H    0.982
     7   6 C    3.995 --     5 C    0.991    42 H    0.984    44 H    0.984
                            43 H    0.983
     8   8 O    2.231 --     9 B    1.129     5 C    0.952
     9   5 B    3.379 --     8 O    1.129     3 O    1.126    10 C    1.002
    10   6 C    3.963 --    11 C    1.654     9 B    1.002    27 C    0.939
                            29 C    0.172
    11   6 C    3.987 --    10 C    1.654    12 C    1.171    45 H    0.964
    12   6 C    3.949 --    11 C    1.171    13 H    0.973    14 C    0.912
                            31 C    0.758
    13   1 H    0.999 --    12 C    0.973
    14   6 C    3.954 --    16 C    1.029    15 H    0.969    31 C    0.927
                            12 C    0.912
    15   1 H    0.998 --    14 C    0.969
    16   6 C    3.978 --    26 C    1.830    14 C    1.029    17 B    0.997
    17   5 B    3.375 --    25 O    1.133    18 O    1.127    16 C    0.997
    18   8 O    2.232 --    17 B    1.127    19 C    0.953
    19   6 C    3.943 --    20 C    0.997    21 C    0.991    18 O    0.953
                            22 C    0.937
    20   6 C    3.994 --    19 C    0.997    47 H    0.984    46 H    0.983
                            48 H    0.982
    21   6 C    3.994 --    19 C    0.991    51 H    0.984    50 H    0.984
                            49 H    0.983
    22   6 C    3.942 --    24 C    0.996    23 C    0.991    25 O    0.952
                            19 C    0.937
    23   6 C    3.995 --    22 C    0.991    52 H    0.984    54 H    0.984
                            53 H    0.983
    24   6 C    3.994 --    22 C    0.996    55 H    0.985    57 H    0.983
                            56 H    0.982
    25   8 O    2.236 --    17 B    1.133    22 C    0.952
    26   6 C    3.987 --    16 C    1.830    27 C    1.012    58 H    0.967
    27   6 C    3.987 --    26 C    1.012    28 H    0.969    29 C    0.965
                            10 C    0.939
    28   1 H    0.998 --    27 C    0.969
    29   6 C    3.977 --    30 C    1.718    59 H    0.970    27 C    0.965
                            10 C    0.172
    30   6 C    3.984 --    29 C    1.718    31 C    1.150    60 H    0.966
    31   6 C    3.943 --    30 C    1.150    32 H    0.973    14 C    0.927
                            12 C    0.758
    32   1 H    0.999 --    31 C    0.973
    33   1 H    0.997 --     1 C    0.983
    34   1 H    0.998 --     1 C    0.985
    35   1 H    0.997 --     1 C    0.982
    36   1 H    0.997 --     4 C    0.983
    37   1 H    0.998 --     4 C    0.984
    38   1 H    0.998 --     4 C    0.984
    39   1 H    0.998 --     6 C    0.984
    40   1 H    0.997 --     6 C    0.982
    41   1 H    0.997 --     6 C    0.983
    42   1 H    0.998 --     7 C    0.984
    43   1 H    0.997 --     7 C    0.983
    44   1 H    0.998 --     7 C    0.984
    45   1 H    0.999 --    11 C    0.964
    46   1 H    0.997 --    20 C    0.983
    47   1 H    0.998 --    20 C    0.984
    48   1 H    0.997 --    20 C    0.982
    49   1 H    0.997 --    21 C    0.983
    50   1 H    0.998 --    21 C    0.984
    51   1 H    0.998 --    21 C    0.984
    52   1 H    0.998 --    23 C    0.984
    53   1 H    0.997 --    23 C    0.983
    54   1 H    0.998 --    23 C    0.984
    55   1 H    0.998 --    24 C    0.985
    56   1 H    0.997 --    24 C    0.982
    57   1 H    0.997 --    24 C    0.983
    58   1 H    0.999 --    26 C    0.967
    59   1 H    0.999 --    29 C    0.970
    60   1 H    0.999 --    30 C    0.966
 ---------------------------------------------------------------------------

molecular dipole:
                 x           y           z       tot (Debye)
 q only:       -0.215      -0.468       0.144
   full:       -0.111      -0.548       0.097       1.441

           -------------------------------------------------
          | TOTAL ENERGY              -82.309757513379 Eh   |
          | GRADIENT NORM               0.000456630272 Eh/α |
          | HOMO-LUMO GAP               3.094106181701 eV   |
           -------------------------------------------------

 * finished run on 2022/07/09 at 18:33:05.753
