   * xtb version 6.5.0 (homebrew) compiled by 'nhattrup@GPGGRP-SHANNON.CHEME.CMU.EDU' on
          program call               : /opt/homebrew/bin/xtb bvl_bpin2_scan_5-0_xtb.xyz --chrg 0 --uhf 0 --opt --input xcontrol_bvl_bpin2_scan_5-0_xtb

   ID    Z sym.   atoms
    1    6 C      1, 2, 4-7, 10-12, 14, 16, 19-24, 26, 27, 29-31
    2    8 O      3, 8, 18, 25
    3    5 B      9, 17
    4    1 H      13, 15, 28, 32-60
constraining bond 12 31 to    2.0556000 Å, actual value:    1.9387791 Å
constraining bond 10 29 to    2.5000000 Å, actual value:    2.4978455 Å

          :  Hamiltonian                  GFN2-xTB          :
 * total energy  :   -82.1940186 Eh     change       -0.2164725E-08 Eh
 * total energy  :   -82.2553161 Eh     change       -0.6129751E-01 Eh
 * total energy  :   -82.2825889 Eh     change       -0.2727284E-01 Eh
 * total energy  :   -82.2829048 Eh     change       -0.3159193E-03 Eh
 * total energy  :   -82.2831040 Eh     change       -0.1991967E-03 Eh
 * total energy  :   -82.2821795 Eh     change        0.9245284E-03 Eh
 * total energy  :   -82.2831499 Eh     change       -0.9703918E-03 Eh
 * total energy  :   -82.2831703 Eh     change       -0.2045530E-04 Eh
 * total energy  :   -82.2832199 Eh     change       -0.4952888E-04 Eh
 * total energy  :   -82.2832388 Eh     change       -0.1892758E-04 Eh
 * total energy  :   -82.2832496 Eh     change       -0.1084423E-04 Eh
 * total energy  :   -82.2832598 Eh     change       -0.1020537E-04 Eh
 * total energy  :   -82.2832643 Eh     change       -0.4418818E-05 Eh
 * total energy  :   -82.2832718 Eh     change       -0.7548221E-05 Eh
 * total energy  :   -82.2832749 Eh     change       -0.3118558E-05 Eh
 * total energy  :   -82.2832873 Eh     change       -0.1240239E-04 Eh
 * total energy  :   -82.2832913 Eh     change       -0.3922201E-05 Eh
 * total energy  :   -82.2832978 Eh     change       -0.6524842E-05 Eh
 * total energy  :   -82.2833005 Eh     change       -0.2698082E-05 Eh
   *** GEOMETRY OPTIMIZATION CONVERGED AFTER 19 ITERATIONS ***

 final structure:
================
60
 xtb: 6.5.0 (homebrew)
C            3.28364160689634      -38.06008310951306       16.14603361059952
C            3.60102182291744      -38.25520708601444       17.62699484739409
O            3.23748866119591      -37.08359629428127       18.35333386242289
C            2.74335626398924      -39.40271931564094       18.17682549936251
C            5.12706077317585      -38.42281252079197       17.96296537607878
C            5.57988010364512      -39.86094815082227       18.20563009948204
C            6.04111230883834      -37.77871539089002       16.91236660874028
O            5.27818187719919      -37.67068874369823       19.16497534638278
B            4.19434366359923      -36.84240660293620       19.30572938595618
C            4.04626624408365      -35.80856293525893       20.44621903520217
C            5.07817843428658      -35.57402844615557       21.30861679467558
C            5.12370365380546      -34.73265227928086       22.42835560913726
H            6.08007491502357      -34.57062760487252       22.90249191916464
C            3.95636131666828      -34.01589501009738       23.06488903542317
H            4.17114840095518      -33.75945301312510       24.10198549731269
C            2.60767835003558      -34.65713168094674       22.98721344297408
B            1.82222316745783      -34.85646086867394       24.31984702006638
O            2.28792201422615      -34.47174391128656       25.54758433466802
C            1.39620683703080      -34.95870871755958       26.54988668770713
C            1.20162809573012      -33.88901871918034       27.62211091856724
C            2.06447565000907      -36.18737075342402       27.17996047861834
C            0.10342373588078      -35.31945503981018       25.73087131812455
C           -0.93477885646512      -34.19022394372587       25.72413418197571
C           -0.57774326446253      -36.62315658795986       26.14073357281045
O            0.59020247186483      -35.44113374422916       24.39523668559838
C            2.08803839654169      -35.07324717066726       21.83015897161732
C            2.75310910793825      -34.97184580213283       20.49349830690231
H            2.08483657261912      -35.38625441674922       19.73603852934317
C            3.07067386748780      -33.53665304832546       20.09530670606713
C            3.81169567988715      -32.68274687306940       20.83240740410864
C            4.29359500433563      -32.87923492690500       22.14167460256161
H            4.99988254837141      -32.16030104446226       22.52946202767502
H            2.20632809560718      -37.97747517057353       16.02454893201195
H            3.63765879804964      -38.91146687356493       15.57083743250888
H            3.73572995399991      -37.15079201518510       15.76337045280643
H            1.69518387366215      -39.13671709595613       18.06021315384088
H            2.93841907106518      -39.54027047602778       19.23749333966714
H            2.93489754349839      -40.32882439728049       17.64305682854231
H            5.38788422955184      -40.47092398454075       17.32704262799194
H            5.07364992923671      -40.29012845062330       19.06414286416810
H            6.64778125729319      -39.86303284038870       18.40961643735496
H            6.01161953960366      -38.32820698628230       15.97619332845742
H            7.06000116397094      -37.78150113792067       17.29294741845115
H            5.74904990554253      -36.74526649963735       16.74305197648611
H            5.99278151747057      -36.12401682844395       21.11219064612063
H            2.14654026139819      -33.72788195279583       28.13518991741161
H            0.45950001489057      -34.21390348203489       28.34629832997992
H            0.89204177111590      -32.94585570717371       27.18372577034943
H            3.02921857722322      -35.88777909657319       27.58308029915374
H            2.23897424491268      -36.94825073705531       26.42335720148576
H            1.45790866460075      -36.59689444599196       27.98206196794939
H           -1.38369459678286      -34.06187930689888       26.70443679669051
H           -1.71296700023116      -34.44347417919074       25.00787481527816
H           -0.47504227981506      -33.25891599355585       25.40307162373404
H           -0.87952430488276      -36.58019260267488       27.18364824977531
H            0.07926628464759      -37.47288133033668       25.98656965004167
H           -1.46133442662063      -36.76542303104644       25.52359548960221
H            1.11260437362234      -35.53989112597441       21.85512411395046
H            2.80613410524712      -33.26318906368423       19.08519984329727
H            4.07826000735447      -31.72888143610102       20.38833277617249

          :  Hamiltonian                  GFN2-xTB          :
         :: total energy             -82.283300486538 Eh    ::
         :: gradient norm              0.000791117904 Eh/a0 ::
         :: HOMO-LUMO gap              1.813235706142 eV    ::
         :: SCC energy               -83.355553066536 Eh    ::
         :: -> dispersion             -0.061921986159 Eh    ::
         :: repulsion energy           1.071253137593 Eh    ::

    * Orbital Energies and Occupations

         #    Occupation            Energy/Eh            Energy/eV
      -------------------------------------------------------------
         1        2.0000           -0.6874754             -18.7072
       ...           ...                  ...                  ...
        63        2.0000           -0.4363584             -11.8739
        64        2.0000           -0.4278533             -11.6425
        65        2.0000           -0.4250045             -11.5650
        66        2.0000           -0.4198662             -11.4251
        67        2.0000           -0.4180012             -11.3744
        68        2.0000           -0.4120022             -11.2112
        69        2.0000           -0.4010969             -10.9144
        70        2.0000           -0.3971391             -10.8067
        71        2.0000           -0.3949864             -10.7481
        72        2.0000           -0.3935306             -10.7085
        73        2.0000           -0.3924425             -10.6789
        74        2.0000           -0.3642558              -9.9119
        75        2.0000           -0.3283217              -8.9341 (HOMO)
        76                         -0.2616865              -7.1209 (LUMO)
        77                         -0.2182718              -5.9395
        78                         -0.1874596              -5.1010
        79                         -0.1381217              -3.7585
        80                         -0.0971387              -2.6433
        81                         -0.0821360              -2.2350
        82                          0.0092617               0.2520
        83                          0.0154949               0.4216
        84                          0.0287866               0.7833
        85                          0.0320889               0.8732
        86                          0.0571270               1.5545
       ...                                ...                  ...
       144                          0.6749977              18.3676
      -------------------------------------------------------------
                  HL-Gap            0.0666352 Eh            1.8132 eV

     #   Z          covCN         q      C6AA      α(0)
     1   6 C        3.755    -0.116    22.786     6.806
     2   6 C        3.860     0.129    18.446     6.108
     3   8 O        1.638    -0.375    20.378     6.093
     4   6 C        3.755    -0.116    22.767     6.804
     5   6 C        3.859     0.130    18.444     6.108
     6   6 C        3.755    -0.117    22.792     6.807
     7   6 C        3.755    -0.115    22.762     6.803
     8   8 O        1.638    -0.376    20.405     6.097
     9   5 B        2.659     0.430    15.589     6.647
    10   6 C        2.868    -0.090    30.250     9.016
    11   6 C        2.892    -0.031    28.778     8.795
    12   6 C        3.273    -0.024    27.213     8.407
    13   1 H        0.926     0.032     2.562     2.503
    14   6 C        3.863    -0.006    20.642     6.461
    15   1 H        0.925     0.049     2.329     2.386
    16   6 C        2.864    -0.086    30.145     9.000
    17   5 B        2.662     0.431    15.567     6.641
    18   8 O        1.638    -0.372    20.331     6.086
    19   6 C        3.859     0.129    18.457     6.110
    20   6 C        3.755    -0.117    22.800     6.808
    21   6 C        3.755    -0.116    22.780     6.806
    22   6 C        3.861     0.129    18.457     6.110
    23   6 C        3.755    -0.117    22.787     6.807
    24   6 C        3.755    -0.118    22.808     6.810
    25   8 O        1.638    -0.370    20.279     6.079
    26   6 C        2.900    -0.023    28.583     8.766
    27   6 C        3.858    -0.018    20.863     6.496
    28   1 H        0.924     0.047     2.360     2.402
    29   6 C        2.895    -0.036    28.888     8.812
    30   6 C        2.888    -0.035    28.875     8.810
    31   6 C        3.275    -0.020    27.096     8.385
    32   1 H        0.926     0.032     2.558     2.501
    33   1 H        0.925     0.053     2.277     2.360
    34   1 H        0.925     0.038     2.470     2.457
    35   1 H        0.925     0.051     2.307     2.375
    36   1 H        0.925     0.051     2.303     2.373
    37   1 H        0.925     0.043     2.408     2.427
    38   1 H        0.925     0.041     2.434     2.440
    39   1 H        0.925     0.039     2.466     2.456
    40   1 H        0.925     0.052     2.301     2.372
    41   1 H        0.925     0.053     2.280     2.362
    42   1 H        0.925     0.042     2.429     2.437
    43   1 H        0.925     0.051     2.311     2.377
    44   1 H        0.925     0.043     2.413     2.429
    45   1 H        0.925     0.037     2.488     2.466
    46   1 H        0.925     0.054     2.270     2.356
    47   1 H        0.925     0.040     2.451     2.448
    48   1 H        0.925     0.052     2.296     2.369
    49   1 H        0.925     0.052     2.297     2.370
    50   1 H        0.925     0.044     2.398     2.422
    51   1 H        0.925     0.043     2.416     2.430
    52   1 H        0.925     0.043     2.413     2.429
    53   1 H        0.925     0.053     2.286     2.364
    54   1 H        0.925     0.044     2.399     2.422
    55   1 H        0.925     0.040     2.450     2.448
    56   1 H        0.925     0.052     2.293     2.368
    57   1 H        0.925     0.055     2.261     2.352
    58   1 H        0.925     0.038     2.477     2.461
    59   1 H        0.926     0.029     2.605     2.524
    60   1 H        0.925     0.026     2.639     2.540

Wiberg/Mayer (AO) data.
largest (>0.10) Wiberg bond orders for each atom

     #   Z sym  total        # sym  WBO       # sym  WBO       # sym  WBO
 ---------------------------------------------------------------------------
     1   6 C    3.994 --     2 C    0.996    34 H    0.985    33 H    0.983
                            35 H    0.983
     2   6 C    3.944 --     1 C    0.996     4 C    0.990     3 O    0.956
                             5 C    0.937
     3   8 O    2.221 --     9 B    1.115     2 C    0.956
     4   6 C    3.994 --     2 C    0.990    38 H    0.985    37 H    0.984
                            36 H    0.983
     5   6 C    3.944 --     6 C    0.996     7 C    0.990     8 O    0.955
                             2 C    0.937
     6   6 C    3.994 --     5 C    0.996    39 H    0.985    41 H    0.983
                            40 H    0.982
     7   6 C    3.995 --     5 C    0.990    42 H    0.985    44 H    0.984
                            43 H    0.983
     8   8 O    2.220 --     9 B    1.115     5 C    0.955
     9   5 B    3.383 --     8 O    1.115     3 O    1.115    10 C    1.026
    10   6 C    3.965 --    11 C    1.597     9 B    1.026    27 C    0.953
                            31 C    0.132    29 C    0.113
    11   6 C    3.991 --    10 C    1.597    12 C    1.321    45 H    0.958
    12   6 C    3.937 --    11 C    1.321    13 H    0.973    14 C    0.945
                            31 C    0.486    29 C    0.129
    13   1 H    0.999 --    12 C    0.973
    14   6 C    3.985 --    16 C    1.012    15 H    0.966    31 C    0.965
                            12 C    0.945
    15   1 H    0.997 --    14 C    0.966
    16   6 C    3.977 --    26 C    1.839    14 C    1.012    17 B    1.000
    17   5 B    3.377 --    25 O    1.133    18 O    1.127    16 C    1.000
    18   8 O    2.233 --    17 B    1.127    19 C    0.953
    19   6 C    3.943 --    20 C    0.997    21 C    0.991    18 O    0.953
                            22 C    0.936
    20   6 C    3.994 --    19 C    0.997    47 H    0.984    46 H    0.983
                            48 H    0.982
    21   6 C    3.994 --    19 C    0.991    51 H    0.984    50 H    0.984
                            49 H    0.983
    22   6 C    3.942 --    24 C    0.996    23 C    0.991    25 O    0.953
                            19 C    0.936
    23   6 C    3.995 --    22 C    0.991    52 H    0.984    54 H    0.984
                            53 H    0.983
    24   6 C    3.994 --    22 C    0.996    55 H    0.985    57 H    0.982
                            56 H    0.982
    25   8 O    2.237 --    17 B    1.133    22 C    0.953
    26   6 C    3.985 --    16 C    1.839    27 C    1.005    58 H    0.967
    27   6 C    3.994 --    26 C    1.005    29 C    0.981    28 H    0.972
                            10 C    0.953
    28   1 H    0.998 --    27 C    0.972
    29   6 C    3.978 --    30 C    1.680    27 C    0.981    59 H    0.972
                            12 C    0.129    10 C    0.113
    30   6 C    3.992 --    29 C    1.680    31 C    1.279    60 H    0.961
    31   6 C    3.923 --    30 C    1.279    32 H    0.974    14 C    0.965
                            12 C    0.486    10 C    0.132
    32   1 H    0.999 --    31 C    0.974
    33   1 H    0.997 --     1 C    0.983
    34   1 H    0.998 --     1 C    0.985
    35   1 H    0.997 --     1 C    0.983
    36   1 H    0.997 --     4 C    0.983
    37   1 H    0.998 --     4 C    0.984
    38   1 H    0.998 --     4 C    0.985
    39   1 H    0.998 --     6 C    0.985
    40   1 H    0.997 --     6 C    0.982
    41   1 H    0.997 --     6 C    0.983
    42   1 H    0.998 --     7 C    0.985
    43   1 H    0.997 --     7 C    0.983
    44   1 H    0.998 --     7 C    0.984
    45   1 H    0.998 --    11 C    0.958
    46   1 H    0.997 --    20 C    0.983
    47   1 H    0.998 --    20 C    0.984
    48   1 H    0.997 --    20 C    0.982
    49   1 H    0.997 --    21 C    0.983
    50   1 H    0.998 --    21 C    0.984
    51   1 H    0.998 --    21 C    0.984
    52   1 H    0.998 --    23 C    0.984
    53   1 H    0.997 --    23 C    0.983
    54   1 H    0.998 --    23 C    0.984
    55   1 H    0.998 --    24 C    0.985
    56   1 H    0.997 --    24 C    0.982
    57   1 H    0.997 --    24 C    0.982
    58   1 H    0.998 --    26 C    0.967
    59   1 H    0.999 --    29 C    0.972
    60   1 H    0.999 --    30 C    0.961
 ---------------------------------------------------------------------------

molecular dipole:
                 x           y           z       tot (Debye)
 q only:       -0.273      -0.386       0.339
   full:       -0.125      -0.464       0.260       1.388

           -------------------------------------------------
          | TOTAL ENERGY              -82.283300486538 Eh   |
          | GRADIENT NORM               0.000791117904 Eh/α |
          | HOMO-LUMO GAP               1.813235706142 eV   |
           -------------------------------------------------

 * finished run on 2022/07/09 at 18:33:03.359
