   * xtb version 6.5.0 (homebrew) compiled by 'nhattrup@GPGGRP-SHANNON.CHEME.CMU.EDU' on
          program call               : /opt/homebrew/bin/xtb bvl_bpin2_scan_0-9_xtb.xyz --chrg 0 --uhf 0 --opt --input xcontrol_bvl_bpin2_scan_0-9_xtb

   ID    Z sym.   atoms
    1    6 C      1, 2, 4-7, 10-12, 14, 16, 19-24, 26, 27, 29-31
    2    8 O      3, 8, 18, 25
    3    5 B      9, 17
    4    1 H      13, 15, 28, 32-60
constraining bond 12 31 to    1.5000000 Å, actual value:    1.5068186 Å
constraining bond 10 29 to    1.5000000 Å, actual value:    1.6149853 Å

          :  Hamiltonian                  GFN2-xTB          :
 * total energy  :   -82.1908319 Eh     change       -0.1573540E-08 Eh
 * total energy  :   -82.2437547 Eh     change       -0.5292280E-01 Eh
 * total energy  :   -82.2763022 Eh     change       -0.3254752E-01 Eh
 * total energy  :   -82.2764905 Eh     change       -0.1882713E-03 Eh
 * total energy  :   -82.2765498 Eh     change       -0.5928725E-04 Eh
 * total energy  :   -82.2765560 Eh     change       -0.6218691E-05 Eh
 * total energy  :   -82.2765607 Eh     change       -0.4666205E-05 Eh
 * total energy  :   -82.2765664 Eh     change       -0.5672151E-05 Eh
 * total energy  :   -82.2765695 Eh     change       -0.3120515E-05 Eh
 * total energy  :   -82.2765811 Eh     change       -0.1162288E-04 Eh
 * total energy  :   -82.2765868 Eh     change       -0.5654572E-05 Eh
 * total energy  :   -82.2765908 Eh     change       -0.4006611E-05 Eh
   *** GEOMETRY OPTIMIZATION CONVERGED AFTER 12 ITERATIONS ***

 final structure:
================
60
 xtb: 6.5.0 (homebrew)
C            3.50024871329452      -37.75434859685226       15.87023256867911
C            3.72487902705410      -38.11477313553880       17.33644062002573
O            3.26221263461103      -37.04666112658578       18.16602238099425
C            2.88093546967753      -39.34569929626220       17.68839918161797
C            5.23090916576652      -38.26413463679206       17.76091498950058
C            5.72525554039485      -39.70217420340960       17.89209249947146
C            6.18834382523748      -37.48316877883112       16.85260889437163
O            5.26831474267175      -37.62981767249200       19.04231242382175
B            4.14673618941285      -36.87258020971020       19.19119543382170
C            3.89584171983121      -35.88073981697516       20.39523222495053
C            4.91960162578099      -35.86092228062455       21.39123995358574
C            4.97839404684728      -34.84299309083069       22.37996461637902
H            5.92419855950041      -34.81420517428690       22.91871844688917
C            3.80836420484992      -34.29975314619897       23.14904467944782
H            4.06556567507596      -33.91347419951479       24.12679761533292
C            2.46616801193026      -34.93507028149205       23.14665143568244
B            1.70858090228145      -34.94323397292976       24.50786441921700
O            2.20774346258227      -34.39546237507821       25.65974335978625
C            1.33783260391853      -34.72737776409582       26.74018972283647
C            1.18724654073309      -33.52062534474993       27.66373055761048
C            2.00584453081222      -35.87168786088318       27.51356063712592
C            0.01945929272849      -35.17300782736582       26.00996827140862
C           -0.99514146282473      -34.03143412273676       25.86480086742393
C           -0.67753418236672      -36.38592918336690       26.62232514731949
O            0.47122260540451      -35.49628679806833       24.69572280432192
C            1.90439506983518      -35.49481701541409       22.07027294419147
C            2.43308429379845      -35.59433897195949       20.70769380743000
H            1.75917925607910      -36.08562627125983       20.01798768444728
C            3.28245139795983      -34.54504039271022       20.06018327307463
C            3.81198352548998      -33.39772388855123       20.71102549231099
C            4.37930991610830      -33.50994066904187       22.01124772284123
H            4.94840567628023      -32.63295402012311       22.31551653766672
H            2.43123152583675      -37.68965837064910       15.68331552474860
H            3.92394947578860      -38.52066462925395       15.22694169413703
H            3.94248469819595      -36.79328917457400       15.62859095502611
H            1.83346998951911      -39.10649128993175       17.51957464122388
H            3.00306792278491      -39.59666162862801       18.73910813482787
H            3.15274786525326      -40.19700733611113       17.07187051263199
H            5.62269542690737      -40.22240512160833       16.94366803148548
H            5.17784090580703      -40.23670781752696       18.66138823624052
H            6.77488780743845      -39.68824997395600       18.17449268235248
H            6.24637712367311      -37.93193177326221       15.86563400716172
H            7.17716742885742      -37.49260543295039       17.30512136765964
H            5.86838873297228      -36.44759264527676       16.76861494237346
H            5.84459289887393      -36.35190992861256       21.12733114814992
H            2.14754571423497      -33.31079580690153       28.12840092682731
H            0.45875158441186      -33.73157721251894       28.44198544288294
H            0.88199735047404      -32.63866887144093       27.11010275406894
H            2.98690636329027      -35.53818905726693       27.84423407682224
H            2.14557491899523      -36.73161633341817       26.86328248231374
H            1.41801968426162      -36.15632625884282       28.38104918934265
H           -1.41747740737071      -33.75568110652569       26.82648133859833
H           -1.79571283743969      -34.36346881623598       25.20781479433864
H           -0.52302534914487      -33.16610264116824       25.40649736461273
H           -0.94800561544374      -36.18265082580204       27.65503711136905
H           -0.04362598097207      -37.26556284895917       26.57912918772267
H           -1.58180415031614      -36.59475221498416       26.05610829177464
H            0.92521617708311      -35.93662732398429       22.19819873863737
H            3.05796191473385      -34.39163614847945       19.00645815905867
H            4.18239325053638      -32.60221728639840       20.07961705002653

          :  Hamiltonian                  GFN2-xTB          :
         :: total energy             -82.276590766781 Eh    ::
         :: gradient norm              0.000413457062 Eh/a0 ::
         :: HOMO-LUMO gap              1.621425193072 eV    ::
         :: SCC energy               -83.352842516960 Eh    ::
         :: -> dispersion             -0.061096127754 Eh    ::
         :: repulsion energy           1.074853191836 Eh    ::

    * Orbital Energies and Occupations

         #    Occupation            Energy/Eh            Energy/eV
      -------------------------------------------------------------
         1        2.0000           -0.6958915             -18.9362
       ...           ...                  ...                  ...
        63        2.0000           -0.4357184             -11.8565
        64        2.0000           -0.4290649             -11.6755
        65        2.0000           -0.4260816             -11.5943
        66        2.0000           -0.4248607             -11.5610
        67        2.0000           -0.4174235             -11.3587
        68        2.0000           -0.4142939             -11.2735
        69        2.0000           -0.4109253             -11.1818
        70        2.0000           -0.4042144             -10.9992
        71        2.0000           -0.3994238             -10.8689
        72        2.0000           -0.3939751             -10.7206
        73        2.0000           -0.3861111             -10.5066
        74        2.0000           -0.3733981             -10.1607
        75        2.0000           -0.2996868              -8.1549 (HOMO)
        76                         -0.2401005              -6.5335 (LUMO)
        77                         -0.2195507              -5.9743
        78                         -0.1513453              -4.1183
        79                         -0.0994911              -2.7073
        80                         -0.0032108              -0.0874
        81                          0.0018076               0.0492
        82                          0.0131556               0.3580
        83                          0.0218300               0.5940
        84                          0.0258815               0.7043
        85                          0.0319896               0.8705
        86                          0.0516734               1.4061
       ...                                ...                  ...
       144                          0.6991048              19.0236
      -------------------------------------------------------------
                  HL-Gap            0.0595863 Eh            1.6214 eV

     #   Z          covCN         q      C6AA      α(0)
     1   6 C        3.755    -0.118    22.810     6.810
     2   6 C        3.860     0.129    18.447     6.108
     3   8 O        1.638    -0.374    20.356     6.090
     4   6 C        3.755    -0.117    22.796     6.808
     5   6 C        3.861     0.129    18.455     6.109
     6   6 C        3.755    -0.119    22.827     6.812
     7   6 C        3.755    -0.117    22.790     6.807
     8   8 O        1.638    -0.368    20.247     6.074
     9   5 B        2.660     0.442    15.448     6.617
    10   6 C        3.839    -0.043    21.309     6.567
    11   6 C        2.899    -0.077    29.933     8.971
    12   6 C        3.867     0.007    20.422     6.426
    13   1 H        0.925     0.027     2.628     2.535
    14   6 C        3.864    -0.033    21.118     6.535
    15   1 H        0.925     0.041     2.438     2.442
    16   6 C        2.863    -0.087    30.168     9.003
    17   5 B        2.662     0.431    15.560     6.639
    18   8 O        1.638    -0.375    20.371     6.092
    19   6 C        3.859     0.129    18.452     6.109
    20   6 C        3.755    -0.117    22.794     6.808
    21   6 C        3.755    -0.116    22.773     6.804
    22   6 C        3.860     0.129    18.452     6.109
    23   6 C        3.755    -0.116    22.781     6.806
    24   6 C        3.755    -0.117    22.799     6.808
    25   8 O        1.638    -0.373    20.340     6.088
    26   6 C        2.895    -0.028    28.698     8.783
    27   6 C        3.861    -0.030    21.065     6.527
    28   1 H        0.925     0.038     2.470     2.458
    29   6 C        3.871     0.010    20.369     6.418
    30   6 C        2.894    -0.084    30.100     8.995
    31   6 C        3.869     0.007    20.412     6.424
    32   1 H        0.925     0.027     2.629     2.535
    33   1 H        0.925     0.056     2.246     2.344
    34   1 H        0.925     0.041     2.430     2.438
    35   1 H        0.925     0.052     2.289     2.366
    36   1 H        0.925     0.054     2.275     2.358
    37   1 H        0.925     0.045     2.384     2.414
    38   1 H        0.925     0.044     2.394     2.420
    39   1 H        0.925     0.042     2.425     2.435
    40   1 H        0.925     0.054     2.272     2.357
    41   1 H        0.925     0.056     2.241     2.341
    42   1 H        0.925     0.045     2.388     2.417
    43   1 H        0.925     0.054     2.269     2.356
    44   1 H        0.925     0.044     2.399     2.422
    45   1 H        0.926     0.027     2.629     2.535
    46   1 H        0.925     0.054     2.277     2.360
    47   1 H        0.925     0.039     2.463     2.454
    48   1 H        0.925     0.052     2.297     2.370
    49   1 H        0.925     0.051     2.303     2.373
    50   1 H        0.925     0.044     2.401     2.423
    51   1 H        0.925     0.042     2.427     2.436
    52   1 H        0.925     0.042     2.423     2.434
    53   1 H        0.925     0.052     2.297     2.370
    54   1 H        0.925     0.044     2.397     2.421
    55   1 H        0.925     0.039     2.460     2.453
    56   1 H        0.925     0.052     2.298     2.371
    57   1 H        0.925     0.054     2.272     2.357
    58   1 H        0.925     0.037     2.486     2.466
    59   1 H        0.925     0.031     2.572     2.508
    60   1 H        0.926     0.014     2.821     2.626

Wiberg/Mayer (AO) data.
largest (>0.10) Wiberg bond orders for each atom

     #   Z sym  total        # sym  WBO       # sym  WBO       # sym  WBO
 ---------------------------------------------------------------------------
     1   6 C    3.994 --     2 C    0.997    34 H    0.984    33 H    0.982
                            35 H    0.982
     2   6 C    3.941 --     1 C    0.997     4 C    0.991     3 O    0.948
                             5 C    0.937
     3   8 O    2.234 --     9 B    1.138     2 C    0.948
     4   6 C    3.994 --     2 C    0.991    38 H    0.984    37 H    0.984
                            36 H    0.982
     5   6 C    3.940 --     6 C    0.997     7 C    0.991     8 O    0.947
                             2 C    0.937
     6   6 C    3.993 --     5 C    0.997    39 H    0.984    41 H    0.982
                            40 H    0.982
     7   6 C    3.995 --     5 C    0.991    42 H    0.984    44 H    0.984
                            43 H    0.982
     8   8 O    2.244 --     9 B    1.149     5 C    0.947
     9   5 B    3.373 --     8 O    1.149     3 O    1.138    10 C    0.974
    10   6 C    3.940 --    11 C    1.246     9 B    0.974    27 C    0.839
                            29 C    0.731
    11   6 C    3.968 --    12 C    1.263    10 C    1.246    45 H    0.968
                            30 C    0.343
    12   6 C    3.960 --    11 C    1.263    13 H    0.968    14 C    0.887
                            31 C    0.739
    13   1 H    0.999 --    12 C    0.968
    14   6 C    3.922 --    16 C    1.022    15 H    0.968    31 C    0.897
                            12 C    0.887
    15   1 H    0.998 --    14 C    0.968
    16   6 C    3.978 --    26 C    1.798    14 C    1.022    17 B    1.004
    17   5 B    3.377 --    25 O    1.125    18 O    1.122    16 C    1.004
    18   8 O    2.228 --    17 B    1.122    19 C    0.954
    19   6 C    3.944 --    20 C    0.997    21 C    0.990    18 O    0.954
                            22 C    0.937
    20   6 C    3.994 --    19 C    0.997    47 H    0.985    46 H    0.983
                            48 H    0.982
    21   6 C    3.994 --    19 C    0.990    51 H    0.985    50 H    0.984
                            49 H    0.983
    22   6 C    3.943 --    24 C    0.996    23 C    0.990    25 O    0.954
                            19 C    0.937
    23   6 C    3.995 --    22 C    0.990    52 H    0.985    54 H    0.984
                            53 H    0.983
    24   6 C    3.994 --    22 C    0.996    55 H    0.985    57 H    0.983
                            56 H    0.982
    25   8 O    2.229 --    17 B    1.125    22 C    0.954
    26   6 C    3.989 --    16 C    1.798    27 C    1.062    58 H    0.964
    27   6 C    3.922 --    26 C    1.062    28 H    0.969    29 C    0.888
                            10 C    0.839
    28   1 H    0.998 --    27 C    0.969
    29   6 C    3.957 --    30 C    1.253    59 H    0.967    27 C    0.888
                            10 C    0.731
    30   6 C    3.955 --    29 C    1.253    31 C    1.250    60 H    0.970
                            11 C    0.343
    31   6 C    3.957 --    30 C    1.250    32 H    0.969    14 C    0.897
                            12 C    0.739
    32   1 H    0.999 --    31 C    0.969
    33   1 H    0.997 --     1 C    0.982
    34   1 H    0.998 --     1 C    0.984
    35   1 H    0.997 --     1 C    0.982
    36   1 H    0.997 --     4 C    0.982
    37   1 H    0.998 --     4 C    0.984
    38   1 H    0.998 --     4 C    0.984
    39   1 H    0.998 --     6 C    0.984
    40   1 H    0.997 --     6 C    0.982
    41   1 H    0.997 --     6 C    0.982
    42   1 H    0.998 --     7 C    0.984
    43   1 H    0.997 --     7 C    0.982
    44   1 H    0.998 --     7 C    0.984
    45   1 H    0.999 --    11 C    0.968
    46   1 H    0.997 --    20 C    0.983
    47   1 H    0.998 --    20 C    0.985
    48   1 H    0.997 --    20 C    0.982
    49   1 H    0.997 --    21 C    0.983
    50   1 H    0.998 --    21 C    0.984
    51   1 H    0.998 --    21 C    0.985
    52   1 H    0.998 --    23 C    0.985
    53   1 H    0.997 --    23 C    0.983
    54   1 H    0.998 --    23 C    0.984
    55   1 H    0.998 --    24 C    0.985
    56   1 H    0.997 --    24 C    0.982
    57   1 H    0.997 --    24 C    0.983
    58   1 H    0.998 --    26 C    0.964
    59   1 H    0.998 --    29 C    0.967
    60   1 H    1.000 --    30 C    0.970
 ---------------------------------------------------------------------------

molecular dipole:
                 x           y           z       tot (Debye)
 q only:       -0.120      -0.635      -0.223
   full:        0.006      -0.686      -0.289       1.894

           -------------------------------------------------
          | TOTAL ENERGY              -82.276590766781 Eh   |
          | GRADIENT NORM               0.000413457062 Eh/α |
          | HOMO-LUMO GAP               1.621425193072 eV   |
           -------------------------------------------------

 * finished run on 2022/07/09 at 18:33:24.236
