   * xtb version 6.5.0 (homebrew) compiled by 'nhattrup@GPGGRP-SHANNON.CHEME.CMU.EDU' on
          program call               : /opt/homebrew/bin/xtb bvl_bpin2_scan_7-7_xtb.xyz --chrg 0 --uhf 0 --opt --input xcontrol_bvl_bpin2_scan_7-7_xtb

   ID    Z sym.   atoms
    1    6 C      1, 2, 4-7, 10-12, 14, 16, 19-24, 26, 27, 29-31
    2    8 O      3, 8, 18, 25
    3    5 B      9, 17
    4    1 H      13, 15, 28, 32-60
constraining bond 12 31 to    2.2778000 Å, actual value:    2.1676803 Å
constraining bond 10 29 to    1.7222000 Å, actual value:    1.8292226 Å

          :  Hamiltonian                  GFN2-xTB          :
 * total energy  :   -82.1355686 Eh     change       -0.1441308E-08 Eh
 * total energy  :   -82.2663908 Eh     change       -0.1308222E+00 Eh
 * total energy  :   -82.3102120 Eh     change       -0.4382122E-01 Eh
 * total energy  :   -82.3108748 Eh     change       -0.6627526E-03 Eh
 * total energy  :   -82.3113543 Eh     change       -0.4795438E-03 Eh
 * total energy  :   -82.3078597 Eh     change        0.3494568E-02 Eh
 * total energy  :   -82.3118625 Eh     change       -0.4002806E-02 Eh
 * total energy  :   -82.3120456 Eh     change       -0.1830745E-03 Eh
 * total energy  :   -82.3122832 Eh     change       -0.2376225E-03 Eh
 * total energy  :   -82.3125673 Eh     change       -0.2840857E-03 Eh
 * total energy  :   -82.3126718 Eh     change       -0.4449069E-04 Eh
 * total energy  :   -82.3127044 Eh     change       -0.3258445E-04 Eh
 * total energy  :   -82.3127302 Eh     change       -0.2578838E-04 Eh
 * total energy  :   -82.3127478 Eh     change       -0.1762565E-04 Eh
 * total energy  :   -82.3127595 Eh     change       -0.1171715E-04 Eh
 * total energy  :   -82.3127699 Eh     change       -0.1040393E-04 Eh
 * total energy  :   -82.3127772 Eh     change       -0.7264923E-05 Eh
 * total energy  :   -82.3127841 Eh     change       -0.6933338E-05 Eh
 * total energy  :   -82.3127870 Eh     change       -0.2886473E-05 Eh
   *** GEOMETRY OPTIMIZATION CONVERGED AFTER 20 ITERATIONS ***

 final structure:
================
60
 xtb: 6.5.0 (homebrew)
C            3.49237190683114      -37.72491065902128       15.89034810339424
C            3.73717842956262      -38.13282151547759       17.34117315377941
O            3.26853799213529      -37.10020365695874       18.20894330907318
C            2.91516436034457      -39.38922758312234       17.65525503949288
C            5.24905534086323      -38.27608056612272       17.74628165041700
C            5.76756497770632      -39.71069048285237       17.80839199951014
C            6.18310897285527      -37.43979155898729       16.86279539224320
O            5.28958502716092      -37.69784283928522       19.05199373845707
B            4.16181566498128      -36.94986688564557       19.23610710808343
C            3.90509997866549      -36.03632736615004       20.47072596636521
C            4.91203697077679      -35.99660431342421       21.51327405097106
C            4.92196309241548      -35.25473018823165       22.62564974803296
H            5.79320073926419      -35.31144537753913       23.26543277021306
C            3.85779486063981      -34.29211456015943       23.05023361525153
H            4.09045026199981      -33.89033169604162       24.03763201698102
C            2.47503369067396      -34.89417385108741       23.11378513047004
B            1.72850212809302      -34.88393942054663       24.48284108957809
O            2.23954611054890      -34.35754736831488       25.63732595455844
C            1.37339381709806      -34.69581963812898       26.71958798573160
C            1.23528739865509      -33.49966760245617       27.65863540768531
C            2.03857364216763      -35.85340251806595       27.47540527190976
C            0.04664584336348      -35.12466968602409       25.99339955165999
C           -0.97014142458717      -33.98152520569713       25.87997042117086
C           -0.64620186948069      -36.34902315315558       26.58795609690952
O            0.48567911295274      -35.42399659761077       24.66939603116839
C            1.90021103825653      -35.46751432495623       22.05234344443002
C            2.45966857648207      -35.60063085237771       20.70165453149719
H            1.77714574393156      -36.09486571195011       20.01721571754105
C            3.24627264547051      -34.50901171490334       20.04242338445250
C            3.79376540984153      -33.35571084848408       20.70699308424227
C            4.06131452271102      -33.23542332917867       22.01289754088907
H            4.52310145241773      -32.31763142270758       22.35361530078779
H            2.42040991506452      -37.67154969193243       15.71652753966177
H            3.92202146178795      -38.45992620314087       15.21531142755957
H            3.91577969073099      -36.74812523531895       15.67997650193566
H            1.86204162068687      -39.15902288940188       17.51049931459700
H            3.05574068707703      -39.68137870101432       18.69292018254249
H            3.18993730766694      -40.21106848238453       17.00090576196679
H            5.66145470021500      -40.19146638237947       16.83964311309620
H            5.23804967325856      -40.28736099688523       18.55974779945527
H            6.82039902357908      -39.69270887991815       18.07872883549744
H            6.23718616957284      -37.84210103869205       15.85574147247901
H            7.17709961904759      -37.45185144651896       17.30386207964771
H            5.84403881729058      -36.40731928219088       16.83014034783081
H            5.77535217621147      -36.61319125131617       21.29502510554287
H            2.20035558156119      -33.29721735329221       28.11655017368100
H            0.51423180605254      -33.71931224251233       28.44148964336559
H            0.92544303074302      -32.61031808625506       27.11958122700218
H            3.02379012731701      -35.53077509808924       27.80433174091654
H            2.16848401121953      -36.70701267156047       26.81483989496933
H            1.45382693650455      -36.14408310087018       28.34299869179919
H           -1.38045169418810      -33.72281723040786       26.85151644136188
H           -1.77894553651687      -34.30414008563285       25.22834546330140
H           -0.50606114490965      -33.10750800148857       25.43010735484228
H           -0.90640429266274      -36.16682048535577       27.62714293125948
H           -0.01453204708327      -37.22868390937050       26.52012269418256
H           -1.55630191099985      -36.54457203751875       26.02636177773209
H            0.91354019529013      -35.89239625367624       22.18497862099411
H            3.11423382475764      -34.42978955616165       18.97386340435629
H            4.06026383592737      -32.53688091204931       20.04880685147603

          :  Hamiltonian                  GFN2-xTB          :
         :: total energy             -82.312786998416 Eh    ::
         :: gradient norm              0.000688750952 Eh/a0 ::
         :: HOMO-LUMO gap              3.321159615655 eV    ::
         :: SCC energy               -83.392776226294 Eh    ::
         :: -> dispersion             -0.061883530449 Eh    ::
         :: repulsion energy           1.079159290631 Eh    ::

    * Orbital Energies and Occupations

         #    Occupation            Energy/Eh            Energy/eV
      -------------------------------------------------------------
         1        2.0000           -0.6917156             -18.8225
       ...           ...                  ...                  ...
        63        2.0000           -0.4342777             -11.8173
        64        2.0000           -0.4333119             -11.7910
        65        2.0000           -0.4285622             -11.6618
        66        2.0000           -0.4228956             -11.5076
        67        2.0000           -0.4187251             -11.3941
        68        2.0000           -0.4143685             -11.2755
        69        2.0000           -0.4030305             -10.9670
        70        2.0000           -0.4001540             -10.8887
        71        2.0000           -0.3973087             -10.8113
        72        2.0000           -0.3951605             -10.7529
        73        2.0000           -0.3868165             -10.5258
        74        2.0000           -0.3521276              -9.5819
        75        2.0000           -0.3475720              -9.4579 (HOMO)
        76                         -0.2255216              -6.1368 (LUMO)
        77                         -0.2003975              -5.4531
        78                         -0.1843919              -5.0176
        79                         -0.1417151              -3.8563
        80                         -0.0955178              -2.5992
        81                         -0.0227344              -0.6186
        82                          0.0052778               0.1436
        83                          0.0107360               0.2921
        84                          0.0254305               0.6920
        85                          0.0301104               0.8193
        86                          0.0536782               1.4607
       ...                                ...                  ...
       144                          0.6810988              18.5336
      -------------------------------------------------------------
                  HL-Gap            0.1220504 Eh            3.3212 eV

     #   Z          covCN         q      C6AA      α(0)
     1   6 C        3.755    -0.117    22.798     6.808
     2   6 C        3.859     0.130    18.440     6.107
     3   8 O        1.638    -0.379    20.461     6.106
     4   6 C        3.755    -0.116    22.783     6.806
     5   6 C        3.860     0.129    18.446     6.108
     6   6 C        3.755    -0.118    22.810     6.810
     7   6 C        3.755    -0.116    22.777     6.805
     8   8 O        1.638    -0.372    20.326     6.086
     9   5 B        2.658     0.438    15.492     6.628
    10   6 C        3.775    -0.066    21.798     6.652
    11   6 C        2.890    -0.044    29.099     8.844
    12   6 C        2.958    -0.035    28.858     8.811
    13   1 H        0.925     0.024     2.678     2.559
    14   6 C        3.865    -0.015    20.804     6.486
    15   1 H        0.924     0.043     2.406     2.426
    16   6 C        2.866    -0.082    30.058     8.987
    17   5 B        2.661     0.432    15.560     6.640
    18   8 O        1.638    -0.370    20.293     6.081
    19   6 C        3.860     0.129    18.455     6.109
    20   6 C        3.755    -0.117    22.795     6.808
    21   6 C        3.755    -0.116    22.774     6.805
    22   6 C        3.859     0.129    18.453     6.109
    23   6 C        3.755    -0.116    22.779     6.805
    24   6 C        3.755    -0.117    22.801     6.809
    25   8 O        1.638    -0.373    20.336     6.087
    26   6 C        2.896    -0.028    28.706     8.785
    27   6 C        3.861    -0.007    20.670     6.466
    28   1 H        0.925     0.043     2.403     2.424
    29   6 C        3.803    -0.014    20.816     6.495
    30   6 C        2.889    -0.041    29.018     8.832
    31   6 C        2.958    -0.031    28.768     8.798
    32   1 H        0.925     0.025     2.660     2.551
    33   1 H        0.925     0.055     2.263     2.352
    34   1 H        0.925     0.040     2.447     2.446
    35   1 H        0.925     0.052     2.300     2.372
    36   1 H        0.925     0.052     2.292     2.368
    37   1 H        0.925     0.044     2.397     2.421
    38   1 H        0.925     0.043     2.409     2.427
    39   1 H        0.925     0.040     2.443     2.444
    40   1 H        0.925     0.053     2.287     2.365
    41   1 H        0.925     0.055     2.256     2.349
    42   1 H        0.925     0.043     2.407     2.426
    43   1 H        0.925     0.053     2.283     2.363
    44   1 H        0.925     0.043     2.407     2.426
    45   1 H        0.925     0.033     2.548     2.496
    46   1 H        0.925     0.054     2.269     2.355
    47   1 H        0.925     0.039     2.458     2.452
    48   1 H        0.925     0.052     2.298     2.370
    49   1 H        0.925     0.052     2.295     2.369
    50   1 H        0.925     0.044     2.402     2.424
    51   1 H        0.925     0.042     2.423     2.434
    52   1 H        0.925     0.042     2.417     2.431
    53   1 H        0.925     0.052     2.295     2.369
    54   1 H        0.925     0.044     2.401     2.423
    55   1 H        0.925     0.040     2.454     2.450
    56   1 H        0.925     0.052     2.297     2.370
    57   1 H        0.925     0.054     2.271     2.356
    58   1 H        0.925     0.037     2.487     2.466
    59   1 H        0.926     0.036     2.497     2.471
    60   1 H        0.925     0.023     2.681     2.561

Wiberg/Mayer (AO) data.
largest (>0.10) Wiberg bond orders for each atom

     #   Z sym  total        # sym  WBO       # sym  WBO       # sym  WBO
 ---------------------------------------------------------------------------
     1   6 C    3.994 --     2 C    0.997    34 H    0.984    33 H    0.982
                            35 H    0.982
     2   6 C    3.942 --     1 C    0.997     4 C    0.991     3 O    0.951
                             5 C    0.937
     3   8 O    2.222 --     9 B    1.121     2 C    0.951
     4   6 C    3.994 --     2 C    0.991    38 H    0.984    37 H    0.984
                            36 H    0.983
     5   6 C    3.941 --     6 C    0.997     7 C    0.991     8 O    0.950
                             2 C    0.937
     6   6 C    3.994 --     5 C    0.997    39 H    0.984    41 H    0.982
                            40 H    0.982
     7   6 C    3.995 --     5 C    0.991    42 H    0.984    44 H    0.984
                            43 H    0.983
     8   8 O    2.231 --     9 B    1.132     5 C    0.950
     9   5 B    3.381 --     8 O    1.132     3 O    1.121    10 C    1.008
    10   6 C    3.920 --    11 C    1.130     9 B    1.008    27 C    0.884
                            29 C    0.704
    11   6 C    3.990 --    12 C    1.798    10 C    1.130    45 H    0.963
    12   6 C    3.986 --    11 C    1.798    14 C    0.976    13 H    0.969
    13   1 H    0.999 --    12 C    0.969
    14   6 C    3.994 --    16 C    0.982    31 C    0.982    12 C    0.976
                            15 H    0.971
    15   1 H    0.998 --    14 C    0.971
    16   6 C    3.976 --    26 C    1.822    17 B    1.001    14 C    0.982
    17   5 B    3.375 --    18 O    1.128    25 O    1.127    16 C    1.001
    18   8 O    2.234 --    17 B    1.128    19 C    0.953
    19   6 C    3.943 --    20 C    0.997    21 C    0.991    18 O    0.953
                            22 C    0.936
    20   6 C    3.994 --    19 C    0.997    47 H    0.985    46 H    0.983
                            48 H    0.982
    21   6 C    3.994 --    19 C    0.991    51 H    0.984    50 H    0.984
                            49 H    0.983
    22   6 C    3.943 --    24 C    0.996    23 C    0.990    25 O    0.954
                            19 C    0.936
    23   6 C    3.995 --    22 C    0.990    52 H    0.984    54 H    0.984
                            53 H    0.983
    24   6 C    3.994 --    22 C    0.996    55 H    0.985    57 H    0.983
                            56 H    0.982
    25   8 O    2.232 --    17 B    1.127    22 C    0.954
    26   6 C    3.989 --    16 C    1.822    27 C    1.058    58 H    0.965
    27   6 C    3.968 --    26 C    1.058    28 H    0.968    29 C    0.939
                            10 C    0.884
    28   1 H    0.998 --    27 C    0.968
    29   6 C    3.941 --    30 C    1.149    59 H    0.974    27 C    0.939
                            10 C    0.704
    30   6 C    3.989 --    31 C    1.782    29 C    1.149    60 H    0.965
    31   6 C    3.981 --    30 C    1.782    14 C    0.982    32 H    0.970
    32   1 H    0.999 --    31 C    0.970
    33   1 H    0.997 --     1 C    0.982
    34   1 H    0.998 --     1 C    0.984
    35   1 H    0.997 --     1 C    0.982
    36   1 H    0.997 --     4 C    0.983
    37   1 H    0.998 --     4 C    0.984
    38   1 H    0.998 --     4 C    0.984
    39   1 H    0.998 --     6 C    0.984
    40   1 H    0.997 --     6 C    0.982
    41   1 H    0.997 --     6 C    0.982
    42   1 H    0.998 --     7 C    0.984
    43   1 H    0.997 --     7 C    0.983
    44   1 H    0.998 --     7 C    0.984
    45   1 H    0.999 --    11 C    0.963
    46   1 H    0.997 --    20 C    0.983
    47   1 H    0.998 --    20 C    0.985
    48   1 H    0.997 --    20 C    0.982
    49   1 H    0.997 --    21 C    0.983
    50   1 H    0.998 --    21 C    0.984
    51   1 H    0.998 --    21 C    0.984
    52   1 H    0.998 --    23 C    0.984
    53   1 H    0.997 --    23 C    0.983
    54   1 H    0.998 --    23 C    0.984
    55   1 H    0.998 --    24 C    0.985
    56   1 H    0.997 --    24 C    0.982
    57   1 H    0.997 --    24 C    0.983
    58   1 H    0.998 --    26 C    0.965
    59   1 H    0.998 --    29 C    0.974
    60   1 H    0.999 --    30 C    0.965
 ---------------------------------------------------------------------------

molecular dipole:
                 x           y           z       tot (Debye)
 q only:       -0.296      -0.485      -0.114
   full:       -0.277      -0.573      -0.193       1.690

           -------------------------------------------------
          | TOTAL ENERGY              -82.312786998416 Eh   |
          | GRADIENT NORM               0.000688750952 Eh/α |
          | HOMO-LUMO GAP               3.321159615655 eV   |
           -------------------------------------------------

 * finished run on 2022/07/09 at 18:33:39.151
