   * xtb version 6.5.0 (homebrew) compiled by 'nhattrup@GPGGRP-SHANNON.CHEME.CMU.EDU' on
          program call               : /opt/homebrew/bin/xtb bvl_bpin2_scan_7-2_xtb.xyz --chrg 0 --uhf 0 --opt --input xcontrol_bvl_bpin2_scan_7-2_xtb

   ID    Z sym.   atoms
    1    6 C      1, 2, 4-7, 10-12, 14, 16, 19-24, 26, 27, 29-31
    2    8 O      3, 8, 18, 25
    3    5 B      9, 17
    4    1 H      13, 15, 28, 32-60
constraining bond 12 31 to    2.2778000 Å, actual value:    2.1631322 Å
constraining bond 10 29 to    2.2778000 Å, actual value:    2.3861302 Å

          :  Hamiltonian                  GFN2-xTB          :
 * total energy  :   -82.1037627 Eh     change       -0.5900915E-09 Eh
 * total energy  :   -82.2346022 Eh     change       -0.1308395E+00 Eh
 * total energy  :   -82.2781422 Eh     change       -0.4354000E-01 Eh
 * total energy  :   -82.2788396 Eh     change       -0.6973422E-03 Eh
 * total energy  :   -82.2794623 Eh     change       -0.6226985E-03 Eh
 * total energy  :   -82.2754727 Eh     change        0.3989563E-02 Eh
 * total energy  :   -82.2799195 Eh     change       -0.4446801E-02 Eh
 * total energy  :   -82.2801320 Eh     change       -0.2125238E-03 Eh
 * total energy  :   -82.2803267 Eh     change       -0.1947021E-03 Eh
 * total energy  :   -82.2806386 Eh     change       -0.3118487E-03 Eh
 * total energy  :   -82.2810783 Eh     change       -0.1263999E-04 Eh
 * total energy  :   -82.2810895 Eh     change       -0.1125927E-04 Eh
 * total energy  :   -82.2811142 Eh     change       -0.2473226E-04 Eh
 * total energy  :   -82.2811318 Eh     change       -0.1758015E-04 Eh
 * total energy  :   -82.2811424 Eh     change       -0.1053479E-04 Eh
 * total energy  :   -82.2811504 Eh     change       -0.8087324E-05 Eh
 * total energy  :   -82.2811589 Eh     change       -0.8492979E-05 Eh
 * total energy  :   -82.2811666 Eh     change       -0.7701744E-05 Eh
 * total energy  :   -82.2811713 Eh     change       -0.4630584E-05 Eh
   *** GEOMETRY OPTIMIZATION CONVERGED AFTER 42 ITERATIONS ***

 final structure:
================
60
 xtb: 6.5.0 (homebrew)
C            3.57901090222840      -37.67964850498927       15.90224605784803
C            3.75049134312472      -38.15518002948098       17.34339879176255
O            3.27612999295779      -37.15010754603814       18.23707245543317
C            2.87990171450028      -39.39831617545804       17.56795637903634
C            5.24032348787037      -38.36346816547139       17.79885710687169
C            5.71274302189256      -39.81547116191670       17.81322643050536
C            6.23408893926377      -37.52049505218103       16.98887860367171
O            5.24843478827403      -37.84696455827513       19.12821945412271
B            4.13226066574483      -37.07172013470706       19.30612341325317
C            3.86204281180622      -36.23223024199046       20.57600939343348
C            4.89479237317250      -36.00336478753617       21.48250124179608
C            4.92135572982835      -35.18647757433030       22.58164459757239
H            5.86356540078952      -35.06226964033509       23.09653353355659
C            3.81475084551804      -34.25928935688410       23.03215592110235
H            4.04925202140916      -33.87052448179966       24.02453563905640
C            2.44484488400541      -34.88093178623863       23.09018201403465
B            1.70891237148495      -34.89119897196097       24.46545917399682
O            2.24106854402420      -34.36926742426719       25.61322264043585
C            1.39601809765253      -34.71490505652266       26.70941507203522
C            1.27944063885866      -33.52581280478378       27.66037678549418
C            2.07465294575323      -35.87942730015556       27.44214376480219
C            0.05541292878402      -35.13529669682978       26.00463023697458
C           -0.95545660152372      -33.98512291824004       25.91298626966907
C           -0.63271496932278      -36.35885594214361       26.60557699680950
O            0.47047706598823      -35.43080950642205       24.67116381265148
C            1.89389809084673      -35.44250526497141       22.01473342876620
C            2.51159602701942      -35.51853251338232       20.66001684848490
H            1.82416162371587      -36.01591127008469       19.97427601109305
C            2.95423489401029      -34.21585881660464       20.04326225241869
C            3.66750088941256      -33.22414148455825       20.68184432440946
C            4.03057947564760      -33.17331285274089       22.00727929516525
H            4.67413508193847      -32.36395861113002       22.32230942573829
H            2.51763501299205      -37.58756910244087       15.68535118997896
H            4.01716452836114      -38.39853752856143       15.21521670453254
H            4.03832388293024      -36.70807464684605       15.75160313303422
H            1.84130756702761      -39.12913400606238       17.38912688275430
H            2.96672210338153      -39.73614331950674       18.59767584454429
H            3.15857800460714      -40.20086183022849       16.89166344395046
H            5.63137316458087      -40.24734343928963       16.81939306708200
H            5.13618307751472      -40.40838928868101       18.51567589734760
H            6.75383845387298      -39.84326510004416       18.12512935596047
H            6.31842520525668      -37.88309085193834       15.96882549685169
H            7.20832214095596      -37.58163358428731       17.46856931935959
H            5.92717807998292      -36.47746381355737       16.98583594261343
H            5.80849887447606      -36.54397747328940       21.26018051859857
H            2.25222078264586      -33.33491662240641       28.10687209463203
H            0.56712843621163      -33.74583862164436       28.45099774740192
H            0.97015715431766      -32.62959320643262       27.13240509600513
H            3.06573980904094      -35.55927127039098       27.75566634613615
H            2.19283907225419      -36.72646826267871       26.77096552325709
H            1.50609921828161      -36.17832908302732       28.31763604583296
H           -1.35125663666473      -33.73068724777377       26.89169416116715
H           -1.77464843405976      -34.29674856219592       25.26914383082527
H           -0.49040571758650      -33.11113049347582       25.46394188397453
H           -0.87928872756582      -36.17789760883659       27.64838698071962
H           -0.00377663198738      -37.23971325010829       26.52837096627374
H           -1.55013866635175      -36.55146716922536       26.05500820666159
H            0.91592799592023      -35.89259805257964       22.11930802611138
H            2.83815270852416      -34.15677189742491       18.97161015685875
H            3.98355351438799      -32.38871803463629       20.06531876554252

          :  Hamiltonian                  GFN2-xTB          :
         :: total energy             -82.281171274172 Eh    ::
         :: gradient norm              0.000442074107 Eh/a0 ::
         :: HOMO-LUMO gap              1.570735890511 eV    ::
         :: SCC energy               -83.354983993434 Eh    ::
         :: -> dispersion             -0.062585437232 Eh    ::
         :: repulsion energy           1.072959610570 Eh    ::

    * Orbital Energies and Occupations

         #    Occupation            Energy/Eh            Energy/eV
      -------------------------------------------------------------
         1        2.0000           -0.6865818             -18.6828
       ...           ...                  ...                  ...
        63        2.0000           -0.4351424             -11.8408
        64        2.0000           -0.4310392             -11.7292
        65        2.0000           -0.4222858             -11.4910
        66        2.0000           -0.4200203             -11.4293
        67        2.0000           -0.4177888             -11.3686
        68        2.0000           -0.4147871             -11.2869
        69        2.0000           -0.4003572             -10.8943
        70        2.0000           -0.3966955             -10.7946
        71        2.0000           -0.3962460             -10.7824
        72        2.0000           -0.3958160             -10.7707
        73        2.0000           -0.3912275             -10.6458
        74        2.0000           -0.3640802              -9.9071
        75        2.0000           -0.3297331              -8.9725 (HOMO)
        76                         -0.2720096              -7.4018 (LUMO)
        77                         -0.2185417              -5.9468
        78                         -0.1853212              -5.0428
        79                         -0.1451069              -3.9486
        80                         -0.0955813              -2.6009
        81                         -0.0861212              -2.3435
        82                          0.0100991               0.2748
        83                          0.0130318               0.3546
        84                          0.0294590               0.8016
        85                          0.0301147               0.8195
        86                          0.0575484               1.5660
       ...                                ...                  ...
       144                          0.6797006              18.4956
      -------------------------------------------------------------
                  HL-Gap            0.0577235 Eh            1.5707 eV

     #   Z          covCN         q      C6AA      α(0)
     1   6 C        3.755    -0.117    22.787     6.806
     2   6 C        3.858     0.130    18.442     6.107
     3   8 O        1.638    -0.377    20.421     6.100
     4   6 C        3.755    -0.116    22.770     6.804
     5   6 C        3.859     0.130    18.442     6.107
     6   6 C        3.755    -0.117    22.797     6.808
     7   6 C        3.755    -0.115    22.758     6.802
     8   8 O        1.638    -0.376    20.390     6.095
     9   5 B        2.658     0.430    15.583     6.647
    10   6 C        2.934    -0.081    30.016     8.985
    11   6 C        2.892    -0.036    28.894     8.813
    12   6 C        2.959    -0.031    28.768     8.797
    13   1 H        0.926     0.028     2.608     2.525
    14   6 C        3.862    -0.013    20.762     6.480
    15   1 H        0.924     0.048     2.346     2.395
    16   6 C        2.865    -0.083    30.061     8.987
    17   5 B        2.661     0.431    15.568     6.642
    18   8 O        1.638    -0.371    20.309     6.083
    19   6 C        3.860     0.129    18.457     6.110
    20   6 C        3.755    -0.117    22.797     6.808
    21   6 C        3.755    -0.116    22.779     6.805
    22   6 C        3.860     0.129    18.457     6.110
    23   6 C        3.755    -0.116    22.784     6.806
    24   6 C        3.755    -0.118    22.806     6.809
    25   8 O        1.638    -0.370    20.284     6.079
    26   6 C        2.897    -0.026    28.655     8.777
    27   6 C        3.860    -0.011    20.729     6.475
    28   1 H        0.924     0.047     2.353     2.399
    29   6 C        2.962    -0.025    28.633     8.777
    30   6 C        2.888    -0.036    28.902     8.814
    31   6 C        2.961    -0.026    28.650     8.779
    32   1 H        0.926     0.030     2.590     2.516
    33   1 H        0.925     0.054     2.275     2.359
    34   1 H        0.925     0.039     2.463     2.454
    35   1 H        0.925     0.051     2.311     2.377
    36   1 H        0.925     0.051     2.302     2.373
    37   1 H        0.925     0.043     2.403     2.424
    38   1 H        0.925     0.042     2.426     2.436
    39   1 H        0.925     0.039     2.460     2.453
    40   1 H        0.925     0.052     2.296     2.369
    41   1 H        0.925     0.054     2.274     2.358
    42   1 H        0.925     0.042     2.424     2.435
    43   1 H        0.925     0.051     2.304     2.374
    44   1 H        0.925     0.042     2.421     2.433
    45   1 H        0.925     0.035     2.512     2.478
    46   1 H        0.925     0.054     2.271     2.357
    47   1 H        0.925     0.040     2.455     2.450
    48   1 H        0.925     0.052     2.297     2.370
    49   1 H        0.925     0.052     2.297     2.370
    50   1 H        0.925     0.044     2.399     2.422
    51   1 H        0.925     0.042     2.419     2.432
    52   1 H        0.925     0.043     2.415     2.430
    53   1 H        0.925     0.052     2.290     2.366
    54   1 H        0.925     0.044     2.399     2.422
    55   1 H        0.925     0.040     2.452     2.449
    56   1 H        0.925     0.052     2.293     2.368
    57   1 H        0.925     0.055     2.264     2.353
    58   1 H        0.925     0.037     2.486     2.465
    59   1 H        0.926     0.034     2.526     2.485
    60   1 H        0.925     0.026     2.650     2.546

Wiberg/Mayer (AO) data.
largest (>0.10) Wiberg bond orders for each atom

     #   Z sym  total        # sym  WBO       # sym  WBO       # sym  WBO
 ---------------------------------------------------------------------------
     1   6 C    3.994 --     2 C    0.996    34 H    0.985    33 H    0.983
                            35 H    0.982
     2   6 C    3.944 --     1 C    0.996     4 C    0.990     3 O    0.955
                             5 C    0.937
     3   8 O    2.218 --     9 B    1.113     2 C    0.955
     4   6 C    3.994 --     2 C    0.990    38 H    0.984    37 H    0.984
                            36 H    0.983
     5   6 C    3.943 --     6 C    0.996     7 C    0.990     8 O    0.954
                             2 C    0.937
     6   6 C    3.994 --     5 C    0.996    39 H    0.985    41 H    0.983
                            40 H    0.982
     7   6 C    3.994 --     5 C    0.990    42 H    0.985    44 H    0.984
                            43 H    0.983
     8   8 O    2.221 --     9 B    1.116     5 C    0.954
     9   5 B    3.387 --     8 O    1.116     3 O    1.113    10 C    1.028
    10   6 C    3.937 --    11 C    1.403     9 B    1.028    27 C    0.941
                            29 C    0.279    31 C    0.160
    11   6 C    3.991 --    12 C    1.528    10 C    1.403    45 H    0.960
    12   6 C    3.960 --    11 C    1.528    13 H    0.972    14 C    0.967
                            31 C    0.257    29 C    0.151
    13   1 H    0.999 --    12 C    0.972
    14   6 C    3.992 --    16 C    0.994    31 C    0.978    15 H    0.969
                            12 C    0.967
    15   1 H    0.997 --    14 C    0.969
    16   6 C    3.977 --    26 C    1.855    17 B    0.999    14 C    0.994
    17   5 B    3.376 --    25 O    1.132    18 O    1.127    16 C    0.999
    18   8 O    2.234 --    17 B    1.127    19 C    0.953
    19   6 C    3.943 --    20 C    0.997    21 C    0.991    18 O    0.953
                            22 C    0.937
    20   6 C    3.994 --    19 C    0.997    47 H    0.985    46 H    0.983
                            48 H    0.982
    21   6 C    3.994 --    19 C    0.991    51 H    0.984    50 H    0.984
                            49 H    0.983
    22   6 C    3.942 --    24 C    0.996    23 C    0.991    25 O    0.953
                            19 C    0.937
    23   6 C    3.995 --    22 C    0.991    52 H    0.984    54 H    0.984
                            53 H    0.983
    24   6 C    3.994 --    22 C    0.996    55 H    0.985    57 H    0.983
                            56 H    0.982
    25   8 O    2.236 --    17 B    1.132    22 C    0.953
    26   6 C    3.987 --    16 C    1.855    27 C    1.015    58 H    0.966
    27   6 C    3.992 --    26 C    1.015    29 C    0.979    28 H    0.969
                            10 C    0.941
    28   1 H    0.998 --    27 C    0.969
    29   6 C    3.953 --    30 C    1.464    27 C    0.979    59 H    0.973
                            10 C    0.279    12 C    0.151
    30   6 C    3.992 --    31 C    1.490    29 C    1.464    60 H    0.963
    31   6 C    3.946 --    30 C    1.490    14 C    0.978    32 H    0.973
                            12 C    0.257    10 C    0.160
    32   1 H    0.999 --    31 C    0.973
    33   1 H    0.997 --     1 C    0.983
    34   1 H    0.998 --     1 C    0.985
    35   1 H    0.997 --     1 C    0.982
    36   1 H    0.997 --     4 C    0.983
    37   1 H    0.998 --     4 C    0.984
    38   1 H    0.998 --     4 C    0.984
    39   1 H    0.998 --     6 C    0.985
    40   1 H    0.997 --     6 C    0.982
    41   1 H    0.997 --     6 C    0.983
    42   1 H    0.998 --     7 C    0.985
    43   1 H    0.997 --     7 C    0.983
    44   1 H    0.998 --     7 C    0.984
    45   1 H    0.999 --    11 C    0.960
    46   1 H    0.997 --    20 C    0.983
    47   1 H    0.998 --    20 C    0.985
    48   1 H    0.997 --    20 C    0.982
    49   1 H    0.997 --    21 C    0.983
    50   1 H    0.998 --    21 C    0.984
    51   1 H    0.998 --    21 C    0.984
    52   1 H    0.998 --    23 C    0.984
    53   1 H    0.997 --    23 C    0.983
    54   1 H    0.998 --    23 C    0.984
    55   1 H    0.998 --    24 C    0.985
    56   1 H    0.997 --    24 C    0.982
    57   1 H    0.997 --    24 C    0.983
    58   1 H    0.998 --    26 C    0.966
    59   1 H    0.998 --    29 C    0.973
    60   1 H    0.999 --    30 C    0.963
 ---------------------------------------------------------------------------

molecular dipole:
                 x           y           z       tot (Debye)
 q only:       -0.252      -0.271       0.124
   full:       -0.064      -0.311      -0.024       0.810

           -------------------------------------------------
          | TOTAL ENERGY              -82.281171274172 Eh   |
          | GRADIENT NORM               0.000442074107 Eh/α |
          | HOMO-LUMO GAP               1.570735890511 eV   |
           -------------------------------------------------

 * finished run on 2022/07/09 at 18:33:22.685
