   * xtb version 6.5.0 (homebrew) compiled by 'nhattrup@GPGGRP-SHANNON.CHEME.CMU.EDU' on
          program call               : /opt/homebrew/bin/xtb bvl_bpin2_scan_0-8_xtb.xyz --chrg 0 --uhf 0 --opt --input xcontrol_bvl_bpin2_scan_0-8_xtb

   ID    Z sym.   atoms
    1    6 C      1, 2, 4-7, 10-12, 14, 16, 19-24, 26, 27, 29-31
    2    8 O      3, 8, 18, 25
    3    5 B      9, 17
    4    1 H      13, 15, 28, 32-60
constraining bond 12 31 to    1.5000000 Å, actual value:    1.5060787 Å
constraining bond 10 29 to    1.6111000 Å, actual value:    1.7252230 Å

          :  Hamiltonian                  GFN2-xTB          :
 * total energy  :   -82.1974024 Eh     change       -0.1512589E-08 Eh
 * total energy  :   -82.2552719 Eh     change       -0.5786945E-01 Eh
 * total energy  :   -82.2848343 Eh     change       -0.2956250E-01 Eh
 * total energy  :   -82.2850742 Eh     change       -0.2398144E-03 Eh
 * total energy  :   -82.2851390 Eh     change       -0.6487929E-04 Eh
 * total energy  :   -82.2851459 Eh     change       -0.6890873E-05 Eh
 * total energy  :   -82.2851497 Eh     change       -0.3742025E-05 Eh
 * total energy  :   -82.2851529 Eh     change       -0.3205958E-05 Eh
 * total energy  :   -82.2851545 Eh     change       -0.1652038E-05 Eh
   *** GEOMETRY OPTIMIZATION CONVERGED AFTER 9 ITERATIONS ***

 final structure:
================
60
 xtb: 6.5.0 (homebrew)
C            3.48792426334942      -37.73742307781104       15.89095285555415
C            3.72381091372126      -38.13157754322599       17.34698025283918
O            3.25204787450882      -37.08981144361439       18.20330747764879
C            2.89541095431899      -39.38076261532539       17.67062001009386
C            5.23419850036665      -38.27290447171765       17.76047199060769
C            5.74300349852368      -39.70836006061089       17.86395680944024
C            6.17894714479213      -37.46761505121368       16.85999491192742
O            5.27435943311201      -37.66049074880638       19.05180477458163
B            4.14394023125302      -36.91991889518793       19.22343837088716
C            3.89389378747363      -35.94973101996169       20.43803112914861
C            4.91650889638958      -35.87657254749630       21.40766869928343
C            4.97342309724795      -34.84116811746874       22.38587938049085
H            5.91821831735044      -34.80715747398841       22.92482274578703
C            3.80334174976422      -34.28019325189400       23.14382485849979
H            4.05914704408891      -33.88193830675100       24.11738474563218
C            2.45984923223614      -34.90966224856611       23.14585004360906
B            1.70108716447275      -34.91734243022029       24.50768412992114
O            2.20306335610839      -34.38112794500249       25.66302876137824
C            1.33469904530202      -34.72210421933585       26.74221177689891
C            1.18676140071331      -33.52394470864205       27.67721267163902
C            2.00371638233524      -35.87376237491372       27.50367469599578
C            0.01438321038358      -35.16011319791578       26.01053302040950
C           -1.00188074512340      -34.01819947590408       25.88136808583896
C           -0.67961532424324      -36.38114855528474       26.61012581678366
O            0.46276249990481      -35.46815130657219       24.69145793270257
C            1.90145820489569      -35.47473599454619       22.07188162630575
C            2.44841126559857      -35.58807199040297       20.71194308281927
H            1.76944521800711      -36.08391220706606       20.02807491815086
C            3.25340621272282      -34.51808194914256       20.05287974672368
C            3.82777314254217      -33.40601036828936       20.68508913136701
C            4.38446115841773      -33.50996177350044       21.99663615657740
H            4.96060845008718      -32.63509467081101       22.29152011288712
H            2.41727998379549      -37.68050927857671       15.71078393166317
H            3.91713132339132      -38.48229522783469       15.22652055933042
H            3.91773095853865      -36.76544252835885       15.67153186744793
H            1.84457152385891      -39.14848698341251       17.51324125007093
H            3.02529893396803      -39.65851966046107       18.71358096331837
H            3.17313316566878      -40.21234073510752       17.03020079948020
H            5.64092481248726      -40.21326405764665       16.90725487185151
H            5.20452444979273      -40.26143798314164       18.62646512428904
H            6.79377916953253      -39.68918927960377       18.14181225272686
H            6.23188846487092      -37.89579025392710       15.86364131944985
H            7.17150206938008      -37.47943123562494       17.30421627335409
H            5.85155053638439      -36.43269786124525       16.79985935512447
H            5.84968158024234      -36.35453301834347       21.14591787395289
H            2.14826581451096      -33.31862441743214       28.14135864202297
H            0.46029502357679      -33.74233526458027       28.45531257825787
H            0.88005629559620      -32.63674991780921       27.13287277601606
H            2.98528251772473      -35.54347896302346       27.83602232446787
H            2.14250347195281      -36.72760617863234       26.84525970573403
H            1.41712531053304      -36.16644211111175       28.36930302915165
H           -1.42192526664280      -33.75439978348442       26.84737697579696
H           -1.80381567768086      -34.34358588646217       25.22273490063843
H           -0.53229394252803      -33.14682669076480       25.43203966500087
H           -0.94740507104996      -36.19095760835540       27.64598251371337
H           -0.04485033765956      -37.25944402378856       26.55421191725175
H           -1.58520246511676      -36.58402487259132       26.04386820074008
H            0.92072285422406      -35.91369493823887       22.19634363692606
H            3.05063891528280      -34.40047660540906       18.99257964064066
H            4.22671000474359      -32.62744459384239       20.04919632915200

          :  Hamiltonian                  GFN2-xTB          :
         :: total energy             -82.285154531988 Eh    ::
         :: gradient norm              0.000765829322 Eh/a0 ::
         :: HOMO-LUMO gap              1.915691930897 eV    ::
         :: SCC energy               -83.359267405053 Eh    ::
         :: -> dispersion             -0.061030430360 Eh    ::
         :: repulsion energy           1.073054589848 Eh    ::

    * Orbital Energies and Occupations

         #    Occupation            Energy/Eh            Energy/eV
      -------------------------------------------------------------
         1        2.0000           -0.6948784             -18.9086
       ...           ...                  ...                  ...
        63        2.0000           -0.4363285             -11.8731
        64        2.0000           -0.4318593             -11.7515
        65        2.0000           -0.4271466             -11.6232
        66        2.0000           -0.4245376             -11.5523
        67        2.0000           -0.4179587             -11.3732
        68        2.0000           -0.4135069             -11.2521
        69        2.0000           -0.4094928             -11.1429
        70        2.0000           -0.4031427             -10.9701
        71        2.0000           -0.4004515             -10.8968
        72        2.0000           -0.3947246             -10.7410
        73        2.0000           -0.3838793             -10.4459
        74        2.0000           -0.3749968             -10.2042
        75        2.0000           -0.3045094              -8.2861 (HOMO)
        76                         -0.2341090              -6.3704 (LUMO)
        77                         -0.2203707              -5.9966
        78                         -0.1513493              -4.1184
        79                         -0.1005050              -2.7349
        80                         -0.0145815              -0.3968
        81                         -0.0004435              -0.0121
        82                          0.0120809               0.3287
        83                          0.0217279               0.5912
        84                          0.0234310               0.6376
        85                          0.0312003               0.8490
        86                          0.0523763               1.4252
       ...                                ...                  ...
       144                          0.6992343              19.0271
      -------------------------------------------------------------
                  HL-Gap            0.0704004 Eh            1.9157 eV

     #   Z          covCN         q      C6AA      α(0)
     1   6 C        3.755    -0.118    22.806     6.809
     2   6 C        3.859     0.129    18.448     6.108
     3   8 O        1.638    -0.374    20.358     6.090
     4   6 C        3.755    -0.117    22.792     6.807
     5   6 C        3.860     0.129    18.453     6.109
     6   6 C        3.755    -0.118    22.823     6.812
     7   6 C        3.755    -0.117    22.786     6.806
     8   8 O        1.638    -0.369    20.259     6.076
     9   5 B        2.659     0.441    15.462     6.620
    10   6 C        3.823    -0.047    21.405     6.584
    11   6 C        2.896    -0.074    29.857     8.959
    12   6 C        3.867     0.004    20.470     6.434
    13   1 H        0.925     0.027     2.625     2.533
    14   6 C        3.864    -0.032    21.103     6.533
    15   1 H        0.925     0.040     2.446     2.446
    16   6 C        2.863    -0.084    30.104     8.993
    17   5 B        2.663     0.432    15.554     6.638
    18   8 O        1.638    -0.374    20.354     6.090
    19   6 C        3.860     0.129    18.453     6.109
    20   6 C        3.755    -0.117    22.796     6.808
    21   6 C        3.755    -0.116    22.776     6.805
    22   6 C        3.860     0.129    18.453     6.109
    23   6 C        3.755    -0.116    22.782     6.806
    24   6 C        3.755    -0.117    22.801     6.809
    25   8 O        1.638    -0.372    20.325     6.086
    26   6 C        2.896    -0.029    28.720     8.787
    27   6 C        3.862    -0.024    20.963     6.511
    28   1 H        0.925     0.040     2.448     2.447
    29   6 C        3.853     0.004    20.471     6.435
    30   6 C        2.892    -0.082    30.038     8.986
    31   6 C        3.869     0.005    20.456     6.431
    32   1 H        0.925     0.027     2.625     2.534
    33   1 H        0.925     0.056     2.250     2.346
    34   1 H        0.925     0.041     2.435     2.440
    35   1 H        0.925     0.052     2.293     2.368
    36   1 H        0.925     0.053     2.277     2.360
    37   1 H        0.925     0.045     2.387     2.416
    38   1 H        0.925     0.044     2.398     2.422
    39   1 H        0.925     0.042     2.428     2.437
    40   1 H        0.925     0.053     2.277     2.360
    41   1 H        0.925     0.056     2.244     2.343
    42   1 H        0.925     0.044     2.393     2.419
    43   1 H        0.925     0.054     2.272     2.357
    44   1 H        0.925     0.044     2.399     2.422
    45   1 H        0.926     0.027     2.631     2.537
    46   1 H        0.925     0.054     2.274     2.358
    47   1 H        0.925     0.039     2.459     2.452
    48   1 H        0.925     0.052     2.296     2.369
    49   1 H        0.925     0.052     2.300     2.371
    50   1 H        0.925     0.044     2.400     2.423
    51   1 H        0.925     0.042     2.424     2.435
    52   1 H        0.925     0.042     2.420     2.433
    53   1 H        0.925     0.052     2.294     2.369
    54   1 H        0.925     0.044     2.397     2.421
    55   1 H        0.925     0.039     2.457     2.451
    56   1 H        0.925     0.052     2.297     2.370
    57   1 H        0.925     0.054     2.270     2.356
    58   1 H        0.925     0.037     2.488     2.466
    59   1 H        0.925     0.032     2.556     2.500
    60   1 H        0.925     0.014     2.821     2.626

Wiberg/Mayer (AO) data.
largest (>0.10) Wiberg bond orders for each atom

     #   Z sym  total        # sym  WBO       # sym  WBO       # sym  WBO
 ---------------------------------------------------------------------------
     1   6 C    3.994 --     2 C    0.997    34 H    0.984    33 H    0.982
                            35 H    0.982
     2   6 C    3.941 --     1 C    0.997     4 C    0.991     3 O    0.949
                             5 C    0.937
     3   8 O    2.233 --     9 B    1.135     2 C    0.949
     4   6 C    3.994 --     2 C    0.991    38 H    0.984    37 H    0.984
                            36 H    0.983
     5   6 C    3.940 --     6 C    0.997     7 C    0.991     8 O    0.948
                             2 C    0.937
     6   6 C    3.994 --     5 C    0.997    39 H    0.984    41 H    0.982
                            40 H    0.982
     7   6 C    3.995 --     5 C    0.991    42 H    0.984    44 H    0.984
                            43 H    0.982
     8   8 O    2.242 --     9 B    1.145     5 C    0.948
     9   5 B    3.375 --     8 O    1.145     3 O    1.135    10 C    0.981
    10   6 C    3.938 --    11 C    1.324     9 B    0.981    27 C    0.864
                            29 C    0.615
    11   6 C    3.970 --    10 C    1.324    12 C    1.237    45 H    0.967
                            30 C    0.298
    12   6 C    3.959 --    11 C    1.237    13 H    0.969    14 C    0.890
                            31 C    0.755
    13   1 H    0.999 --    12 C    0.969
    14   6 C    3.926 --    16 C    1.025    15 H    0.969    31 C    0.900
                            12 C    0.890
    15   1 H    0.998 --    14 C    0.969
    16   6 C    3.978 --    26 C    1.808    14 C    1.025    17 B    1.001
    17   5 B    3.376 --    25 O    1.127    18 O    1.124    16 C    1.001
    18   8 O    2.230 --    17 B    1.124    19 C    0.954
    19   6 C    3.943 --    20 C    0.997    21 C    0.990    18 O    0.954
                            22 C    0.937
    20   6 C    3.994 --    19 C    0.997    47 H    0.985    46 H    0.983
                            48 H    0.982
    21   6 C    3.994 --    19 C    0.990    51 H    0.985    50 H    0.984
                            49 H    0.983
    22   6 C    3.943 --    24 C    0.996    23 C    0.990    25 O    0.954
                            19 C    0.937
    23   6 C    3.995 --    22 C    0.990    52 H    0.985    54 H    0.984
                            53 H    0.983
    24   6 C    3.994 --    22 C    0.996    55 H    0.985    57 H    0.983
                            56 H    0.982
    25   8 O    2.231 --    17 B    1.127    22 C    0.954
    26   6 C    3.989 --    16 C    1.808    27 C    1.048    58 H    0.965
    27   6 C    3.942 --    26 C    1.048    28 H    0.968    29 C    0.907
                            10 C    0.864
    28   1 H    0.998 --    27 C    0.968
    29   6 C    3.955 --    30 C    1.342    59 H    0.969    27 C    0.907
                            10 C    0.615
    30   6 C    3.958 --    29 C    1.342    31 C    1.223    60 H    0.969
                            11 C    0.298
    31   6 C    3.956 --    30 C    1.223    32 H    0.969    14 C    0.900
                            12 C    0.755
    32   1 H    0.999 --    31 C    0.969
    33   1 H    0.997 --     1 C    0.982
    34   1 H    0.998 --     1 C    0.984
    35   1 H    0.997 --     1 C    0.982
    36   1 H    0.997 --     4 C    0.983
    37   1 H    0.998 --     4 C    0.984
    38   1 H    0.998 --     4 C    0.984
    39   1 H    0.998 --     6 C    0.984
    40   1 H    0.997 --     6 C    0.982
    41   1 H    0.997 --     6 C    0.982
    42   1 H    0.998 --     7 C    0.984
    43   1 H    0.997 --     7 C    0.982
    44   1 H    0.998 --     7 C    0.984
    45   1 H    0.999 --    11 C    0.967
    46   1 H    0.997 --    20 C    0.983
    47   1 H    0.998 --    20 C    0.985
    48   1 H    0.997 --    20 C    0.982
    49   1 H    0.997 --    21 C    0.983
    50   1 H    0.998 --    21 C    0.984
    51   1 H    0.998 --    21 C    0.985
    52   1 H    0.998 --    23 C    0.985
    53   1 H    0.997 --    23 C    0.983
    54   1 H    0.998 --    23 C    0.984
    55   1 H    0.998 --    24 C    0.985
    56   1 H    0.997 --    24 C    0.982
    57   1 H    0.997 --    24 C    0.983
    58   1 H    0.998 --    26 C    0.965
    59   1 H    0.998 --    29 C    0.969
    60   1 H    1.000 --    30 C    0.969
 ---------------------------------------------------------------------------

molecular dipole:
                 x           y           z       tot (Debye)
 q only:       -0.166      -0.608      -0.166
   full:       -0.045      -0.670      -0.243       1.814

           -------------------------------------------------
          | TOTAL ENERGY              -82.285154531988 Eh   |
          | GRADIENT NORM               0.000765829322 Eh/α |
          | HOMO-LUMO GAP               1.915691930897 eV   |
           -------------------------------------------------

 * finished run on 2022/07/09 at 18:33:19.649
