   * xtb version 6.5.0 (homebrew) compiled by 'nhattrup@GPGGRP-SHANNON.CHEME.CMU.EDU' on
          program call               : /opt/homebrew/bin/xtb bvl_bpin2_scan_4-9_xtb.xyz --chrg 0 --uhf 0 --opt --input xcontrol_bvl_bpin2_scan_4-9_xtb

   ID    Z sym.   atoms
    1    6 C      1, 2, 4-7, 10-12, 14, 16, 19-24, 26, 27, 29-31
    2    8 O      3, 8, 18, 25
    3    5 B      9, 17
    4    1 H      13, 15, 28, 32-60
constraining bond 12 31 to    1.9444000 Å, actual value:    1.8358100 Å
constraining bond 10 29 to    1.5000000 Å, actual value:    1.6123697 Å

          :  Hamiltonian                  GFN2-xTB          :
 * total energy  :   -82.1250560 Eh     change       -0.5659189E-09 Eh
 * total energy  :   -82.2532806 Eh     change       -0.1282246E+00 Eh
 * total energy  :   -82.2988403 Eh     change       -0.4555969E-01 Eh
 * total energy  :   -82.2995591 Eh     change       -0.7187322E-03 Eh
 * total energy  :   -82.2999890 Eh     change       -0.4299213E-03 Eh
 * total energy  :   -82.2943478 Eh     change        0.5641144E-02 Eh
 * total energy  :   -82.3002721 Eh     change       -0.5924229E-02 Eh
 * total energy  :   -82.3003880 Eh     change       -0.1159675E-03 Eh
 * total energy  :   -82.3005084 Eh     change       -0.1203689E-03 Eh
 * total energy  :   -82.3006091 Eh     change       -0.1006860E-03 Eh
 * total energy  :   -82.3006369 Eh     change       -0.2783314E-04 Eh
 * total energy  :   -82.3006479 Eh     change       -0.1097927E-04 Eh
 * total energy  :   -82.3006599 Eh     change       -0.1197638E-04 Eh
 * total energy  :   -82.3006671 Eh     change       -0.7258676E-05 Eh
 * total energy  :   -82.3006787 Eh     change       -0.1158074E-04 Eh
 * total energy  :   -82.3006833 Eh     change       -0.4619116E-05 Eh
 * total energy  :   -82.3006905 Eh     change       -0.7180739E-05 Eh
 * total energy  :   -82.3006949 Eh     change       -0.4400018E-05 Eh
   *** GEOMETRY OPTIMIZATION CONVERGED AFTER 18 ITERATIONS ***

 final structure:
================
60
 xtb: 6.5.0 (homebrew)
C            3.47981072720614      -37.75225093223795       15.89963669318448
C            3.72053120972371      -38.13025289819240       17.35925573338067
O            3.25178011021949      -37.07627061075222       18.20212687205917
C            2.89436572552439      -39.37676998237240       17.69882396969153
C            5.23188676095018      -38.26604671973560       17.77086095518160
C            5.74320048818766      -39.69959219148596       17.88809309526927
C            6.17271281315565      -37.46856042700356       16.85937494338237
O            5.27480310922784      -37.63852693413931       19.05487775411686
B            4.14844278687321      -36.88836055233628       19.21573789328229
C            3.89879720945516      -35.89023991801257       20.40716752629051
C            4.93403519776516      -35.86941152137471       21.43455774117032
C            4.96092029762530      -35.05390143588149       22.51003980243297
H            5.88303612754740      -35.02534363124673       23.08178635965677
C            3.83072708984649      -34.27743515680621       23.07867645933311
H            4.06661579693772      -33.88103149343181       24.06435071949220
C            2.46448286326192      -34.89743786905632       23.11974275339340
B            1.71932328263602      -34.90012798692945       24.48628360802643
O            2.22469552689204      -34.37753088454709       25.64707184873956
C            1.35570347932573      -34.72691591027594       26.72335172448031
C            1.21117361481910      -33.53997986807067       27.67322632405951
C            2.01980181749181      -35.89003793153323       27.47179587580874
C            0.03250536263896      -35.15189168478102       25.98908129199517
C           -0.98249906090353      -34.00698238929125       25.87675238875172
C           -0.66369844539281      -36.37911990835845       26.57345484348170
O            0.47713287667870      -35.44530313485502       24.66627392574246
C            1.89348483415430      -35.46771632867610       22.05452285730262
C            2.43199283741360      -35.58719393281624       20.70225430827387
H            1.75967757564234      -36.08253522374860       20.01254253336753
C            3.30164217752044      -34.55623368736254       20.04931249441900
C            3.84249762709786      -33.37987411572217       20.70246804040040
C            4.20605869277130      -33.33040849769127       22.00260809243425
H            4.76687240297080      -32.45826051997309       22.32367684879095
H            2.40839973523880      -37.69930757999074       15.72261637944314
H            3.90854213586141      -38.50232874282887       15.24092300880744
H            3.90634095857797      -36.78118831183893       15.66992793085894
H            1.84264760175474      -39.14826433255543       17.54206898267801
H            3.02789903391353      -39.64439922332193       18.74393037919450
H            3.17165896807108      -40.21432949619120       17.06586060430901
H            5.64102192286039      -40.21433694730366       16.93657252869053
H            5.20668250258253      -40.24653916453381       18.65639007914034
H            6.79440294472615      -39.67601769978749       18.16409804053452
H            6.22253866595289      -37.90534178071713       15.86664100887558
H            7.16688065713588      -37.47521043966160       17.30009020535532
H            5.84372191400720      -36.43461195437517       16.79138046438248
H            5.84202634111702      -36.38773781860743       21.15875261318505
H            2.17287723136312      -33.34204001909058       28.14013765447352
H            0.48455941258965      -33.76737320717568       28.44874823715722
H            0.90507793665430      -32.64536000626625       27.14082106110819
H            3.00247411461122      -35.56821153307053       27.80910634389688
H            2.15516484777644      -36.73701418683224       26.80383070685851
H            1.43114391568468      -36.19022996608650       28.33351033910786
H           -1.40042619150672      -33.75554481897279       26.84698657121933
H           -1.78614949884388      -34.32359080267850       25.21589059792651
H           -0.51375208360053      -33.12996954197830       25.43768209574675
H           -0.93030101280694      -36.20259800510073       27.61197771779822
H           -0.03120089889442      -37.25812177344007       26.50455173251897
H           -1.57015944253914      -36.57177859621361       26.00498851689074
H            0.91070741687913      -35.90045370589054       22.19003853886152
H            3.09867761506515      -34.41150334161233       18.99220197780829
H            4.19970034050399      -32.60211272518050       20.04022940578119

          :  Hamiltonian                  GFN2-xTB          :
         :: total energy             -82.300694925991 Eh    ::
         :: gradient norm              0.000958494633 Eh/a0 ::
         :: HOMO-LUMO gap              2.856432360063 eV    ::
         :: SCC energy               -83.386876230930 Eh    ::
         :: -> dispersion             -0.061348280491 Eh    ::
         :: repulsion energy           1.085251029185 Eh    ::

    * Orbital Energies and Occupations

         #    Occupation            Energy/Eh            Energy/eV
      -------------------------------------------------------------
         1        2.0000           -0.6943468             -18.8941
       ...           ...                  ...                  ...
        63        2.0000           -0.4375583             -11.9066
        64        2.0000           -0.4356564             -11.8548
        65        2.0000           -0.4287483             -11.6668
        66        2.0000           -0.4243889             -11.5482
        67        2.0000           -0.4177507             -11.3676
        68        2.0000           -0.4109212             -11.1817
        69        2.0000           -0.4060757             -11.0499
        70        2.0000           -0.4021716             -10.9436
        71        2.0000           -0.3984034             -10.8411
        72        2.0000           -0.3943232             -10.7301
        73        2.0000           -0.3775196             -10.2728
        74        2.0000           -0.3710005             -10.0954
        75        2.0000           -0.3269896              -8.8978 (HOMO)
        76                         -0.2220177              -6.0414 (LUMO)
        77                         -0.2067674              -5.6264
        78                         -0.1560569              -4.2465
        79                         -0.1307447              -3.5577
        80                         -0.0938985              -2.5551
        81                         -0.0001803              -0.0049
        82                          0.0126473               0.3442
        83                          0.0197552               0.5376
        84                          0.0264794               0.7205
        85                          0.0315656               0.8589
        86                          0.0527447               1.4353
       ...                                ...                  ...
       144                          0.6933259              18.8664
      -------------------------------------------------------------
                  HL-Gap            0.1049720 Eh            2.8564 eV

     #   Z          covCN         q      C6AA      α(0)
     1   6 C        3.755    -0.118    22.807     6.809
     2   6 C        3.858     0.129    18.446     6.108
     3   8 O        1.638    -0.376    20.393     6.096
     4   6 C        3.755    -0.117    22.792     6.807
     5   6 C        3.860     0.129    18.453     6.109
     6   6 C        3.755    -0.118    22.819     6.811
     7   6 C        3.755    -0.117    22.787     6.807
     8   8 O        1.638    -0.369    20.272     6.078
     9   5 B        2.658     0.441    15.459     6.621
    10   6 C        3.837    -0.053    21.499     6.596
    11   6 C        2.893    -0.062    29.546     8.912
    12   6 C        3.484    -0.015    22.734     7.116
    13   1 H        0.925     0.025     2.656     2.549
    14   6 C        3.867    -0.017    20.843     6.492
    15   1 H        0.925     0.043     2.403     2.424
    16   6 C        2.864    -0.088    30.210     9.009
    17   5 B        2.661     0.431    15.566     6.641
    18   8 O        1.638    -0.373    20.350     6.089
    19   6 C        3.859     0.129    18.451     6.109
    20   6 C        3.755    -0.117    22.792     6.807
    21   6 C        3.755    -0.116    22.770     6.804
    22   6 C        3.859     0.129    18.451     6.109
    23   6 C        3.755    -0.116    22.778     6.805
    24   6 C        3.755    -0.117    22.798     6.808
    25   8 O        1.638    -0.373    20.351     6.089
    26   6 C        2.896    -0.025    28.638     8.774
    27   6 C        3.861    -0.022    20.935     6.507
    28   1 H        0.925     0.039     2.461     2.453
    29   6 C        3.868    -0.000    20.540     6.445
    30   6 C        2.890    -0.063    29.559     8.914
    31   6 C        3.485    -0.013    22.671     7.102
    32   1 H        0.925     0.025     2.655     2.548
    33   1 H        0.925     0.056     2.252     2.347
    34   1 H        0.925     0.041     2.436     2.441
    35   1 H        0.925     0.052     2.293     2.368
    36   1 H        0.925     0.053     2.280     2.361
    37   1 H        0.925     0.045     2.388     2.416
    38   1 H        0.925     0.044     2.400     2.422
    39   1 H        0.925     0.041     2.431     2.438
    40   1 H        0.925     0.053     2.279     2.361
    41   1 H        0.925     0.056     2.247     2.344
    42   1 H        0.925     0.044     2.395     2.420
    43   1 H        0.925     0.054     2.273     2.358
    44   1 H        0.925     0.044     2.400     2.422
    45   1 H        0.925     0.030     2.582     2.513
    46   1 H        0.925     0.054     2.276     2.359
    47   1 H        0.925     0.039     2.462     2.454
    48   1 H        0.925     0.052     2.299     2.371
    49   1 H        0.925     0.051     2.302     2.373
    50   1 H        0.925     0.043     2.404     2.425
    51   1 H        0.925     0.042     2.427     2.436
    52   1 H        0.925     0.042     2.424     2.434
    53   1 H        0.925     0.052     2.298     2.371
    54   1 H        0.925     0.044     2.401     2.423
    55   1 H        0.925     0.039     2.460     2.453
    56   1 H        0.925     0.052     2.300     2.371
    57   1 H        0.925     0.054     2.273     2.358
    58   1 H        0.925     0.037     2.483     2.464
    59   1 H        0.925     0.032     2.560     2.502
    60   1 H        0.925     0.019     2.746     2.591

Wiberg/Mayer (AO) data.
largest (>0.10) Wiberg bond orders for each atom

     #   Z sym  total        # sym  WBO       # sym  WBO       # sym  WBO
 ---------------------------------------------------------------------------
     1   6 C    3.994 --     2 C    0.997    34 H    0.984    33 H    0.982
                            35 H    0.982
     2   6 C    3.941 --     1 C    0.997     4 C    0.991     3 O    0.949
                             5 C    0.937
     3   8 O    2.230 --     9 B    1.133     2 C    0.949
     4   6 C    3.994 --     2 C    0.991    38 H    0.984    37 H    0.984
                            36 H    0.983
     5   6 C    3.940 --     6 C    0.997     7 C    0.991     8 O    0.948
                             2 C    0.937
     6   6 C    3.994 --     5 C    0.997    39 H    0.984    41 H    0.982
                            40 H    0.982
     7   6 C    3.995 --     5 C    0.991    42 H    0.984    44 H    0.984
                            43 H    0.982
     8   8 O    2.239 --     9 B    1.144     5 C    0.948
     9   5 B    3.374 --     8 O    1.144     3 O    1.133    10 C    0.983
    10   6 C    3.935 --    11 C    1.118     9 B    0.983    27 C    0.853
                            29 C    0.811
    11   6 C    3.983 --    12 C    1.692    10 C    1.118    45 H    0.965
                            30 C    0.110
    12   6 C    3.977 --    11 C    1.692    13 H    0.969    14 C    0.951
                            31 C    0.235
    13   1 H    0.999 --    12 C    0.969
    14   6 C    3.980 --    16 C    0.993    15 H    0.969    31 C    0.958
                            12 C    0.951
    15   1 H    0.998 --    14 C    0.969
    16   6 C    3.976 --    26 C    1.808    17 B    1.007    14 C    0.993
    17   5 B    3.376 --    25 O    1.124    18 O    1.123    16 C    1.007
    18   8 O    2.229 --    17 B    1.123    19 C    0.954
    19   6 C    3.944 --    20 C    0.997    21 C    0.990    18 O    0.954
                            22 C    0.936
    20   6 C    3.994 --    19 C    0.997    47 H    0.985    46 H    0.983
                            48 H    0.982
    21   6 C    3.994 --    19 C    0.990    51 H    0.985    50 H    0.984
                            49 H    0.983
    22   6 C    3.943 --    24 C    0.996    23 C    0.990    25 O    0.955
                            19 C    0.936
    23   6 C    3.995 --    22 C    0.990    52 H    0.985    54 H    0.984
                            53 H    0.983
    24   6 C    3.994 --    22 C    0.996    55 H    0.985    57 H    0.983
                            56 H    0.982
    25   8 O    2.229 --    17 B    1.124    22 C    0.955
    26   6 C    3.989 --    16 C    1.808    27 C    1.071    58 H    0.964
    27   6 C    3.937 --    26 C    1.071    28 H    0.969    29 C    0.905
                            10 C    0.853
    28   1 H    0.998 --    27 C    0.969
    29   6 C    3.953 --    30 C    1.127    59 H    0.969    27 C    0.905
                            10 C    0.811
    30   6 C    3.978 --    31 C    1.681    29 C    1.127    60 H    0.967
                            11 C    0.110
    31   6 C    3.973 --    30 C    1.681    32 H    0.970    14 C    0.958
                            12 C    0.235
    32   1 H    0.999 --    31 C    0.970
    33   1 H    0.997 --     1 C    0.982
    34   1 H    0.998 --     1 C    0.984
    35   1 H    0.997 --     1 C    0.982
    36   1 H    0.997 --     4 C    0.983
    37   1 H    0.998 --     4 C    0.984
    38   1 H    0.998 --     4 C    0.984
    39   1 H    0.998 --     6 C    0.984
    40   1 H    0.997 --     6 C    0.982
    41   1 H    0.997 --     6 C    0.982
    42   1 H    0.998 --     7 C    0.984
    43   1 H    0.997 --     7 C    0.982
    44   1 H    0.998 --     7 C    0.984
    45   1 H    0.999 --    11 C    0.965
    46   1 H    0.997 --    20 C    0.983
    47   1 H    0.998 --    20 C    0.985
    48   1 H    0.997 --    20 C    0.982
    49   1 H    0.997 --    21 C    0.983
    50   1 H    0.998 --    21 C    0.984
    51   1 H    0.998 --    21 C    0.985
    52   1 H    0.998 --    23 C    0.985
    53   1 H    0.997 --    23 C    0.983
    54   1 H    0.998 --    23 C    0.984
    55   1 H    0.998 --    24 C    0.985
    56   1 H    0.997 --    24 C    0.982
    57   1 H    0.997 --    24 C    0.983
    58   1 H    0.998 --    26 C    0.964
    59   1 H    0.999 --    29 C    0.969
    60   1 H    0.999 --    30 C    0.967
 ---------------------------------------------------------------------------

molecular dipole:
                 x           y           z       tot (Debye)
 q only:       -0.179      -0.592      -0.193
   full:       -0.120      -0.662      -0.234       1.810

           -------------------------------------------------
          | TOTAL ENERGY              -82.300694925991 Eh   |
          | GRADIENT NORM               0.000958494633 Eh/α |
          | HOMO-LUMO GAP               2.856432360063 eV   |
           -------------------------------------------------

 * finished run on 2022/07/09 at 18:33:37.846
