   * xtb version 6.5.0 (homebrew) compiled by 'nhattrup@GPGGRP-SHANNON.CHEME.CMU.EDU' on
          program call               : /opt/homebrew/bin/xtb bvl_bpin2_scan_7-8_xtb.xyz --chrg 0 --uhf 0 --opt --input xcontrol_bvl_bpin2_scan_7-8_xtb

   ID    Z sym.   atoms
    1    6 C      1, 2, 4-7, 10-12, 14, 16, 19-24, 26, 27, 29-31
    2    8 O      3, 8, 18, 25
    3    5 B      9, 17
    4    1 H      13, 15, 28, 32-60
constraining bond 12 31 to    2.2778000 Å, actual value:    2.1686566 Å
constraining bond 10 29 to    1.6111000 Å, actual value:    1.7184686 Å

          :  Hamiltonian                  GFN2-xTB          :
 * total energy  :   -82.1428850 Eh     change       -0.3396991E-08 Eh
 * total energy  :   -82.2701269 Eh     change       -0.1272420E+00 Eh
 * total energy  :   -82.3159907 Eh     change       -0.4586379E-01 Eh
 * total energy  :   -82.3166134 Eh     change       -0.6227050E-03 Eh
 * total energy  :   -82.3169405 Eh     change       -0.3270805E-03 Eh
 * total energy  :   -82.3140041 Eh     change        0.2936408E-02 Eh
 * total energy  :   -82.3175629 Eh     change       -0.3558797E-02 Eh
 * total energy  :   -82.3177593 Eh     change       -0.1964241E-03 Eh
 * total energy  :   -82.3179667 Eh     change       -0.2073402E-03 Eh
 * total energy  :   -82.3183318 Eh     change       -0.3650915E-03 Eh
 * total energy  :   -82.3185884 Eh     change       -0.1604055E-04 Eh
 * total energy  :   -82.3186134 Eh     change       -0.2508076E-04 Eh
 * total energy  :   -82.3186297 Eh     change       -0.1625074E-04 Eh
 * total energy  :   -82.3186503 Eh     change       -0.2057561E-04 Eh
 * total energy  :   -82.3186683 Eh     change       -0.1806391E-04 Eh
 * total energy  :   -82.3186752 Eh     change       -0.6846325E-05 Eh
 * total energy  :   -82.3186853 Eh     change       -0.1016063E-04 Eh
 * total energy  :   -82.3186907 Eh     change       -0.5340747E-05 Eh
 * total energy  :   -82.3186950 Eh     change       -0.4288075E-05 Eh
   *** GEOMETRY OPTIMIZATION CONVERGED AFTER 30 ITERATIONS ***

 final structure:
================
60
 xtb: 6.5.0 (homebrew)
C            3.53657615312319      -37.74374086633480       15.85307399112766
C            3.74932002686991      -38.10388833469430       17.32096362347409
O            3.29881867008700      -37.03027221673597       18.14855613750684
C            2.88840907668867      -39.32436261304857       17.67028067200900
C            5.24979397310067      -38.27518197115963       17.75280005550088
C            5.73145161733757      -39.72003558502397       17.85222459292240
C            6.21739140138153      -37.48022551117064       16.86755693248559
O            5.28126263097658      -37.67102887802057       19.04761245966143
B            4.17226368051290      -36.88938424592251       19.19306844598378
C            3.91175512015708      -35.94823654290114       20.41354382559206
C            4.91239686525224      -35.95938390951640       21.47842612430125
C            4.91117941148877      -35.25258052126785       22.60898419535810
H            5.76832089654632      -35.34668431480950       23.26450250063822
C            3.84430718748209      -34.31024954011946       23.05562596039725
H            4.07539501695959      -33.92583123914242       24.04992016238092
C            2.46738123148736      -34.92876954678387       23.10844055527940
B            1.72494860993190      -34.92475028994124       24.47810476969413
O            2.24186024080519      -34.38167551446922       25.62282919524921
C            1.38372900405915      -34.70704212575450       26.71425477689240
C            1.25178208473336      -33.49859226500750       27.63836003254406
C            2.05518625144213      -35.85405106159896       27.48065662847255
C            0.05327598917830      -35.14558840703039       26.00122669190889
C           -0.95888169968724      -34.00000671562998       25.87143873132675
C           -0.64020038239941      -36.35659746196590       26.62118172388374
O            0.48590420370520      -35.46811034149817       24.68018265134499
C            1.89774693413988      -35.49228598619980       22.03746520424922
C            2.44580317311131      -35.59850543701945       20.68474582844765
H            1.77152995064312      -36.08818510087516       19.99090353249267
C            3.27102230120628      -34.51961808719957       20.04422364615552
C            3.75841737504350      -33.33955748103133       20.73545969684441
C            4.01870538232681      -33.23347852202341       22.03974985487718
H            4.42398040803004      -32.29656588177920       22.40165273874393
H            2.46935743590614      -37.66724868457330       15.66019320794678
H            3.95483817371736      -38.51653808211915       15.21393530597394
H            3.99150128975638      -36.78865115345500       15.61172298329318
H            1.84377560798675      -39.06846985196930       17.50812876882473
H            3.01223209238910      -39.58310098345429       18.71900142517361
H            3.14424963661844      -40.17632761177735       17.04773849588750
H            5.61937044152607      -40.21953122900872       16.89369318355249
H            5.18189227589573      -40.26536054239452       18.61252985177800
H            6.78251658959701      -39.72263484793896       18.12979415558394
H            6.28306780694796      -37.91118098520067       15.87306088363097
H            7.20217775532771      -37.49965806316443       17.32858753468308
H            5.89938424795053      -36.44277674440996       16.79998735784033
H            5.76885475120980      -36.58300731489506       21.25574325344289
H            2.21977941713523      -33.29193720038445       28.08820884511674
H            0.53447115592504      -33.70646830822945       28.42778685100589
H            0.94110451916348      -32.61592279836400       27.08887723650578
H            3.04354438503052      -35.52668041845211       27.79530795110514
H            2.17886268009430      -36.71740552336916       26.83167481269854
H            1.47855603946066      -36.13143194019325       28.35793938753847
H           -1.36451092553392      -33.72177783900784       26.83951420382672
H           -1.77137248847287      -34.32941616021788       25.22789715685295
H           -0.49107123883595      -33.13679484337191       25.40472027522082
H           -0.89422838209245      -36.15392487252738       27.65811871283398
H           -0.01123088268213      -37.23915318595927       26.56710162491766
H           -1.55381958746757      -36.56023357898650       26.06828436862304
H            0.91497698178451      -35.92805062303066       22.16677008645366
H            3.10564265154639      -34.39293377026416       18.98282377910084
H            3.97898478439750      -32.49575632760171       20.09270236282912

          :  Hamiltonian                  GFN2-xTB          :
         :: total energy             -82.318694973094 Eh    ::
         :: gradient norm              0.000766913050 Eh/a0 ::
         :: HOMO-LUMO gap              3.408929351078 eV    ::
         :: SCC energy               -83.401745892747 Eh    ::
         :: -> dispersion             -0.061984170364 Eh    ::
         :: repulsion energy           1.082315942627 Eh    ::

    * Orbital Energies and Occupations

         #    Occupation            Energy/Eh            Energy/eV
      -------------------------------------------------------------
         1        2.0000           -0.6928408             -18.8532
       ...           ...                  ...                  ...
        63        2.0000           -0.4353497             -11.8465
        64        2.0000           -0.4343046             -11.8180
        65        2.0000           -0.4301593             -11.7052
        66        2.0000           -0.4234874             -11.5237
        67        2.0000           -0.4185538             -11.3894
        68        2.0000           -0.4123799             -11.2214
        69        2.0000           -0.4030738             -10.9682
        70        2.0000           -0.4006887             -10.9033
        71        2.0000           -0.3980440             -10.8313
        72        2.0000           -0.3951056             -10.7514
        73        2.0000           -0.3857476             -10.4967
        74        2.0000           -0.3522270              -9.5846
        75        2.0000           -0.3491910              -9.5020 (HOMO)
        76                         -0.2239152              -6.0930 (LUMO)
        77                         -0.1930874              -5.2542
        78                         -0.1833526              -4.9893
        79                         -0.1445002              -3.9321
        80                         -0.0946675              -2.5760
        81                          0.0029740               0.0809
        82                          0.0088505               0.2408
        83                          0.0115522               0.3144
        84                          0.0252963               0.6883
        85                          0.0305689               0.8318
        86                          0.0533751               1.4524
       ...                                ...                  ...
       144                          0.6812369              18.5374
      -------------------------------------------------------------
                  HL-Gap            0.1252758 Eh            3.4089 eV

     #   Z          covCN         q      C6AA      α(0)
     1   6 C        3.755    -0.117    22.804     6.809
     2   6 C        3.861     0.130    18.438     6.107
     3   8 O        1.638    -0.379    20.452     6.104
     4   6 C        3.755    -0.116    22.786     6.806
     5   6 C        3.861     0.129    18.447     6.108
     6   6 C        3.755    -0.118    22.814     6.810
     7   6 C        3.755    -0.116    22.782     6.806
     8   8 O        1.638    -0.371    20.308     6.083
     9   5 B        2.661     0.440    15.461     6.619
    10   6 C        3.820    -0.063    21.693     6.628
    11   6 C        2.891    -0.045    29.122     8.848
    12   6 C        2.957    -0.033    28.825     8.806
    13   1 H        0.925     0.023     2.685     2.562
    14   6 C        3.867    -0.015    20.807     6.486
    15   1 H        0.924     0.044     2.401     2.423
    16   6 C        2.867    -0.084    30.100     8.993
    17   5 B        2.662     0.432    15.557     6.639
    18   8 O        1.638    -0.371    20.308     6.083
    19   6 C        3.860     0.129    18.453     6.109
    20   6 C        3.755    -0.117    22.793     6.807
    21   6 C        3.755    -0.116    22.771     6.804
    22   6 C        3.860     0.129    18.451     6.109
    23   6 C        3.755    -0.116    22.777     6.805
    24   6 C        3.755    -0.117    22.799     6.808
    25   8 O        1.638    -0.373    20.345     6.089
    26   6 C        2.895    -0.028    28.700     8.784
    27   6 C        3.860    -0.011    20.732     6.475
    28   1 H        0.925     0.041     2.435     2.440
    29   6 C        3.850    -0.011    20.738     6.477
    30   6 C        2.889    -0.041    29.026     8.833
    31   6 C        2.958    -0.030    28.749     8.795
    32   1 H        0.925     0.024     2.669     2.555
    33   1 H        0.925     0.055     2.258     2.350
    34   1 H        0.925     0.040     2.442     2.444
    35   1 H        0.925     0.052     2.293     2.368
    36   1 H        0.925     0.052     2.290     2.367
    37   1 H        0.925     0.044     2.396     2.421
    38   1 H        0.925     0.043     2.406     2.426
    39   1 H        0.925     0.041     2.439     2.442
    40   1 H        0.925     0.053     2.282     2.362
    41   1 H        0.925     0.055     2.253     2.347
    42   1 H        0.925     0.044     2.402     2.424
    43   1 H        0.925     0.053     2.279     2.361
    44   1 H        0.925     0.044     2.402     2.424
    45   1 H        0.925     0.033     2.548     2.496
    46   1 H        0.925     0.054     2.270     2.356
    47   1 H        0.925     0.039     2.461     2.453
    48   1 H        0.925     0.052     2.298     2.371
    49   1 H        0.925     0.052     2.297     2.370
    50   1 H        0.925     0.043     2.404     2.425
    51   1 H        0.925     0.042     2.426     2.436
    52   1 H        0.925     0.042     2.419     2.432
    53   1 H        0.925     0.052     2.298     2.370
    54   1 H        0.925     0.044     2.402     2.423
    55   1 H        0.925     0.040     2.455     2.450
    56   1 H        0.925     0.052     2.298     2.370
    57   1 H        0.925     0.054     2.272     2.357
    58   1 H        0.925     0.036     2.501     2.473
    59   1 H        0.925     0.035     2.511     2.478
    60   1 H        0.925     0.023     2.684     2.562

Wiberg/Mayer (AO) data.
largest (>0.10) Wiberg bond orders for each atom

     #   Z sym  total        # sym  WBO       # sym  WBO       # sym  WBO
 ---------------------------------------------------------------------------
     1   6 C    3.994 --     2 C    0.997    34 H    0.984    33 H    0.982
                            35 H    0.982
     2   6 C    3.942 --     1 C    0.997     4 C    0.991     3 O    0.950
                             5 C    0.937
     3   8 O    2.223 --     9 B    1.125     2 C    0.950
     4   6 C    3.994 --     2 C    0.991    38 H    0.984    37 H    0.984
                            36 H    0.983
     5   6 C    3.941 --     6 C    0.997     7 C    0.991     8 O    0.949
                             2 C    0.937
     6   6 C    3.994 --     5 C    0.997    39 H    0.984    41 H    0.982
                            40 H    0.982
     7   6 C    3.995 --     5 C    0.991    42 H    0.984    44 H    0.984
                            43 H    0.983
     8   8 O    2.234 --     9 B    1.137     5 C    0.949
     9   5 B    3.377 --     8 O    1.137     3 O    1.125    10 C    0.999
    10   6 C    3.925 --    11 C    1.095     9 B    0.999    27 C    0.867
                            29 C    0.786
    11   6 C    3.990 --    12 C    1.831    10 C    1.095    45 H    0.964
    12   6 C    3.988 --    11 C    1.831    14 C    0.979    13 H    0.968
    13   1 H    0.999 --    12 C    0.968
    14   6 C    3.995 --    31 C    0.983    12 C    0.979    16 C    0.979
                            15 H    0.971
    15   1 H    0.998 --    14 C    0.971
    16   6 C    3.976 --    26 C    1.811    17 B    1.004    14 C    0.979
    17   5 B    3.375 --    25 O    1.126    18 O    1.126    16 C    1.004
    18   8 O    2.233 --    17 B    1.126    19 C    0.954
    19   6 C    3.944 --    20 C    0.997    21 C    0.990    18 O    0.954
                            22 C    0.936
    20   6 C    3.994 --    19 C    0.997    47 H    0.985    46 H    0.983
                            48 H    0.982
    21   6 C    3.994 --    19 C    0.990    51 H    0.985    50 H    0.984
                            49 H    0.983
    22   6 C    3.943 --    24 C    0.996    23 C    0.990    25 O    0.954
                            19 C    0.936
    23   6 C    3.995 --    22 C    0.990    52 H    0.984    54 H    0.984
                            53 H    0.983
    24   6 C    3.994 --    22 C    0.996    55 H    0.985    57 H    0.983
                            56 H    0.982
    25   8 O    2.230 --    17 B    1.126    22 C    0.954
    26   6 C    3.989 --    16 C    1.811    27 C    1.071    58 H    0.965
    27   6 C    3.957 --    26 C    1.071    28 H    0.969    29 C    0.923
                            10 C    0.867
    28   1 H    0.998 --    27 C    0.969
    29   6 C    3.946 --    30 C    1.109    59 H    0.973    27 C    0.923
                            10 C    0.786
    30   6 C    3.989 --    31 C    1.820    29 C    1.109    60 H    0.966
    31   6 C    3.985 --    30 C    1.820    14 C    0.983    32 H    0.969
    32   1 H    0.999 --    31 C    0.969
    33   1 H    0.997 --     1 C    0.982
    34   1 H    0.998 --     1 C    0.984
    35   1 H    0.997 --     1 C    0.982
    36   1 H    0.997 --     4 C    0.983
    37   1 H    0.998 --     4 C    0.984
    38   1 H    0.998 --     4 C    0.984
    39   1 H    0.998 --     6 C    0.984
    40   1 H    0.997 --     6 C    0.982
    41   1 H    0.997 --     6 C    0.982
    42   1 H    0.998 --     7 C    0.984
    43   1 H    0.997 --     7 C    0.983
    44   1 H    0.998 --     7 C    0.984
    45   1 H    0.999 --    11 C    0.964
    46   1 H    0.997 --    20 C    0.983
    47   1 H    0.998 --    20 C    0.985
    48   1 H    0.997 --    20 C    0.982
    49   1 H    0.997 --    21 C    0.983
    50   1 H    0.998 --    21 C    0.984
    51   1 H    0.998 --    21 C    0.985
    52   1 H    0.998 --    23 C    0.984
    53   1 H    0.997 --    23 C    0.983
    54   1 H    0.998 --    23 C    0.984
    55   1 H    0.998 --    24 C    0.985
    56   1 H    0.997 --    24 C    0.982
    57   1 H    0.997 --    24 C    0.983
    58   1 H    0.998 --    26 C    0.965
    59   1 H    0.998 --    29 C    0.973
    60   1 H    0.999 --    30 C    0.966
 ---------------------------------------------------------------------------

molecular dipole:
                 x           y           z       tot (Debye)
 q only:       -0.258      -0.527      -0.155
   full:       -0.271      -0.616      -0.208       1.790

           -------------------------------------------------
          | TOTAL ENERGY              -82.318694973094 Eh   |
          | GRADIENT NORM               0.000766913050 Eh/α |
          | HOMO-LUMO GAP               3.408929351078 eV   |
           -------------------------------------------------

 * finished run on 2022/07/09 at 18:33:42.096
