   * xtb version 6.5.0 (homebrew) compiled by 'nhattrup@GPGGRP-SHANNON.CHEME.CMU.EDU' on
          program call               : /opt/homebrew/bin/xtb bvl_bpin2_scan_4-5_xtb.xyz --chrg 0 --uhf 0 --opt --input xcontrol_bvl_bpin2_scan_4-5_xtb

   ID    Z sym.   atoms
    1    6 C      1, 2, 4-7, 10-12, 14, 16, 19-24, 26, 27, 29-31
    2    8 O      3, 8, 18, 25
    3    5 B      9, 17
    4    1 H      13, 15, 28, 32-60
constraining bond 12 31 to    1.9444000 Å, actual value:    1.8304070 Å
constraining bond 10 29 to    1.9444000 Å, actual value:    2.0565701 Å

          :  Hamiltonian                  GFN2-xTB          :
 * total energy  :   -82.1188402 Eh     change       -0.1518004E-08 Eh
 * total energy  :   -82.2550858 Eh     change       -0.1362456E+00 Eh
 * total energy  :   -82.2959659 Eh     change       -0.4088003E-01 Eh
 * total energy  :   -82.2967966 Eh     change       -0.8307312E-03 Eh
 * total energy  :   -82.2952839 Eh     change        0.1512721E-02 Eh
 * total energy  :   -82.2967283 Eh     change       -0.1444447E-02 Eh
 * total energy  :   -82.2974421 Eh     change       -0.7137978E-03 Eh
 * total energy  :   -82.2976930 Eh     change       -0.2508839E-03 Eh
 * total energy  :   -82.2977699 Eh     change       -0.7691096E-04 Eh
 * total energy  :   -82.2979203 Eh     change       -0.1503738E-03 Eh
 * total energy  :   -82.2980693 Eh     change       -0.1003137E-04 Eh
 * total energy  :   -82.2980763 Eh     change       -0.6998882E-05 Eh
 * total energy  :   -82.2980849 Eh     change       -0.8666519E-05 Eh
 * total energy  :   -82.2980894 Eh     change       -0.4420506E-05 Eh
 * total energy  :   -82.2981027 Eh     change       -0.1329669E-04 Eh
 * total energy  :   -82.2981105 Eh     change       -0.7837745E-05 Eh
 * total energy  :   -82.2981142 Eh     change       -0.3671148E-05 Eh
 * total energy  :   -82.2981194 Eh     change       -0.5215151E-05 Eh
 * total energy  :   -82.2981241 Eh     change       -0.4663304E-05 Eh
   *** GEOMETRY OPTIMIZATION CONVERGED AFTER 26 ITERATIONS ***

 final structure:
================
60
 xtb: 6.5.0 (homebrew)
C            3.47013200364581      -37.73909678736785       15.92421561916179
C            3.71886775193525      -38.14799150746038       17.37427448517367
O            3.25434836163207      -37.11860119312130       18.24602795131264
C            2.89304634991994      -39.40137170307457       17.69120978487184
C            5.23304141485481      -38.29636746909231       17.77179741731975
C            5.73974784986470      -39.73492543605412       17.84932522173916
C            6.17097707172835      -37.48274821231573       16.87113199638584
O            5.28696614931591      -37.70548763018013       19.07011165201757
B            4.15314193173153      -36.96811319129392       19.26850806222201
C            3.89794400992099      -36.08100485898380       20.51949760712767
C            4.92915332276468      -35.90361806564985       21.44429818008363
C            4.96083095006096      -35.04276398507110       22.52018799761928
H            5.90222765349049      -34.93674856060412       23.04236617928491
C            3.81834601543309      -34.25961228786964       23.08725519499827
H            4.05061543738343      -33.86595420214355       24.07513482748639
C            2.45212927750305      -34.86899459574641       23.11300325614028
B            1.69900716527355      -34.88595365032400       24.47917477014387
O            2.20838387516078      -34.36731760600746       25.63809506847016
C            1.34805316175385      -34.72545093573122       26.71870968060954
C            1.20177172852297      -33.53979808872538       27.66972611594531
C            2.02692914225285      -35.88390620165486       27.46071983730833
C            0.02399548994966      -35.15904198064703       25.99028063174112
C           -1.00215756816123      -34.02318448874518       25.89017234930135
C           -0.65608628510996      -36.39625948664114       26.57251842872466
O            0.46305359229520      -35.43986161536023       24.66169906913792
C            1.90050838244463      -35.42323168847788       22.03352830473269
C            2.50270815650373      -35.52289082738801       20.68446137890234
H            1.81804625249320      -36.01076787281086       19.99347975573011
C            3.15829961862194      -34.34745326133523       20.04441056793579
C            3.85057120142983      -33.33210732633338       20.67964276022722
C            4.23218635619465      -33.31499376524473       22.00782944028786
H            4.88598113435164      -32.51283959714477       22.32311263887081
H            2.39789339724742      -37.67702142959656       15.75515386814894
H            3.89039894542619      -38.47880608024244       15.24830126775406
H            3.90088745643522      -36.76632496806786       15.71004558153668
H            1.84097322536963      -39.16741835057591       17.54456205254844
H            3.03114366827516      -39.68800988814516       18.73078044366725
H            3.16531426524438      -40.22746622102263       17.04137766419694
H            5.62637810782609      -40.22660884039502       16.88692335795336
H            5.20794509119389      -40.29719433123613       18.60987921668116
H            6.79349310894954      -39.72217995159870       18.11638809592483
H            6.21305952569335      -37.90005736853547       15.86955588934975
H            7.16792289972972      -37.50233183108620       17.30537968437744
H            5.84587304845153      -36.44640070691805       16.82572199138008
H            5.86542007849630      -36.37588157751372       21.17270082531141
H            2.16561547979319      -33.33593246341481       28.12962812192258
H            0.48200192619734      -33.77136762164751       28.45019427799879
H            0.88695209141423      -32.64717019653717       27.13902724055815
H            3.00799002665566      -35.55302543622834       27.79393421654220
H            2.16780203437849      -36.72760928494095       26.78975799066094
H            1.44563996004225      -36.19224096440173       28.32446876865799
H           -1.41541321255269      -33.77945215606120       26.86432005807200
H           -1.80753564957904      -34.34401483436220       25.23351711317359
H           -0.54423982033798      -33.14023417634206       25.45157652446319
H           -0.91995405759594      -36.22637474826029       27.61289438690568
H           -0.01443195386039      -37.26812054734690       26.49800202641509
H           -1.56297500589884      -36.59700643141303       26.00761325093254
H            0.91609709731400      -35.85939388730406       22.13627583380189
H            3.03476712903510      -34.28205529309419       18.97322928779840
H            4.28194418149369      -32.56876233511102       20.04271473225229

          :  Hamiltonian                  GFN2-xTB          :
         :: total energy             -82.298124054259 Eh    ::
         :: gradient norm              0.000526624301 Eh/a0 ::
         :: HOMO-LUMO gap              3.180751804600 eV    ::
         :: SCC energy               -83.377173587425 Eh    ::
         :: -> dispersion             -0.061358905583 Eh    ::
         :: repulsion energy           1.078389665637 Eh    ::

    * Orbital Energies and Occupations

         #    Occupation            Energy/Eh            Energy/eV
      -------------------------------------------------------------
         1        2.0000           -0.6889834             -18.7482
       ...           ...                  ...                  ...
        63        2.0000           -0.4341307             -11.8133
        64        2.0000           -0.4328347             -11.7780
        65        2.0000           -0.4290397             -11.6748
        66        2.0000           -0.4216125             -11.4727
        67        2.0000           -0.4193453             -11.4110
        68        2.0000           -0.4153122             -11.3012
        69        2.0000           -0.4059659             -11.0469
        70        2.0000           -0.3981118             -10.8332
        71        2.0000           -0.3970807             -10.8051
        72        2.0000           -0.3941355             -10.7250
        73        2.0000           -0.3842595             -10.4562
        74        2.0000           -0.3512129              -9.5570
        75        2.0000           -0.3444275              -9.3723 (HOMO)
        76                         -0.2275370              -6.1916 (LUMO)
        77                         -0.2074468              -5.6449
        78                         -0.1879864              -5.1154
        79                         -0.1237286              -3.3668
        80                         -0.0972060              -2.6451
        81                         -0.0583534              -1.5879
        82                          0.0086342               0.2349
        83                          0.0096618               0.2629
        84                          0.0278789               0.7586
        85                          0.0291585               0.7934
        86                          0.0570578               1.5526
       ...                                ...                  ...
       144                          0.6924589              18.8428
      -------------------------------------------------------------
                  HL-Gap            0.1168905 Eh            3.1808 eV

     #   Z          covCN         q      C6AA      α(0)
     1   6 C        3.755    -0.117    22.791     6.807
     2   6 C        3.859     0.130    18.445     6.108
     3   8 O        1.638    -0.377    20.418     6.099
     4   6 C        3.755    -0.116    22.778     6.805
     5   6 C        3.858     0.129    18.448     6.108
     6   6 C        3.755    -0.118    22.806     6.809
     7   6 C        3.755    -0.116    22.768     6.804
     8   8 O        1.638    -0.373    20.342     6.088
     9   5 B        2.658     0.435    15.535     6.637
    10   6 C        3.469    -0.071    24.116     7.372
    11   6 C        2.891    -0.052    29.279     8.871
    12   6 C        3.494    -0.020    22.681     7.083
    13   1 H        0.925     0.028     2.616     2.529
    14   6 C        3.865    -0.013    20.771     6.481
    15   1 H        0.925     0.045     2.379     2.412
    16   6 C        2.864    -0.083    30.073     8.989
    17   5 B        2.662     0.432    15.559     6.639
    18   8 O        1.638    -0.372    20.318     6.085
    19   6 C        3.860     0.129    18.455     6.110
    20   6 C        3.755    -0.117    22.798     6.808
    21   6 C        3.755    -0.116    22.778     6.805
    22   6 C        3.860     0.129    18.455     6.110
    23   6 C        3.755    -0.116    22.785     6.806
    24   6 C        3.755    -0.118    22.806     6.809
    25   8 O        1.638    -0.370    20.294     6.081
    26   6 C        2.896    -0.026    28.655     8.777
    27   6 C        3.863    -0.011    20.737     6.476
    28   1 H        0.925     0.045     2.388     2.417
    29   6 C        3.497    -0.016    22.558     7.056
    30   6 C        2.888    -0.055    29.364     8.884
    31   6 C        3.496    -0.016    22.578     7.062
    32   1 H        0.925     0.029     2.607     2.525
    33   1 H        0.925     0.054     2.268     2.355
    34   1 H        0.925     0.040     2.454     2.450
    35   1 H        0.925     0.051     2.306     2.374
    36   1 H        0.925     0.052     2.295     2.369
    37   1 H        0.925     0.044     2.400     2.423
    38   1 H        0.925     0.042     2.419     2.432
    39   1 H        0.925     0.040     2.450     2.448
    40   1 H        0.925     0.052     2.292     2.368
    41   1 H        0.925     0.054     2.265     2.353
    42   1 H        0.925     0.043     2.414     2.430
    43   1 H        0.925     0.052     2.292     2.368
    44   1 H        0.925     0.043     2.409     2.427
    45   1 H        0.925     0.031     2.568     2.506
    46   1 H        0.925     0.054     2.270     2.356
    47   1 H        0.925     0.040     2.453     2.449
    48   1 H        0.925     0.052     2.295     2.369
    49   1 H        0.925     0.052     2.296     2.369
    50   1 H        0.925     0.044     2.398     2.422
    51   1 H        0.925     0.042     2.418     2.432
    52   1 H        0.925     0.043     2.414     2.430
    53   1 H        0.925     0.052     2.289     2.366
    54   1 H        0.925     0.044     2.398     2.421
    55   1 H        0.925     0.040     2.451     2.448
    56   1 H        0.925     0.052     2.294     2.368
    57   1 H        0.925     0.055     2.264     2.353
    58   1 H        0.925     0.038     2.476     2.460
    59   1 H        0.926     0.033     2.548     2.496
    60   1 H        0.925     0.021     2.725     2.581

Wiberg/Mayer (AO) data.
largest (>0.10) Wiberg bond orders for each atom

     #   Z sym  total        # sym  WBO       # sym  WBO       # sym  WBO
 ---------------------------------------------------------------------------
     1   6 C    3.994 --     2 C    0.997    34 H    0.985    33 H    0.983
                            35 H    0.982
     2   6 C    3.943 --     1 C    0.997     4 C    0.991     3 O    0.953
                             5 C    0.936
     3   8 O    2.222 --     9 B    1.119     2 C    0.953
     4   6 C    3.994 --     2 C    0.991    38 H    0.984    37 H    0.984
                            36 H    0.983
     5   6 C    3.942 --     6 C    0.996     7 C    0.991     8 O    0.952
                             2 C    0.936
     6   6 C    3.994 --     5 C    0.996    39 H    0.984    41 H    0.983
                            40 H    0.982
     7   6 C    3.995 --     5 C    0.991    42 H    0.984    44 H    0.984
                            43 H    0.983
     8   8 O    2.229 --     9 B    1.128     5 C    0.952
     9   5 B    3.382 --     8 O    1.128     3 O    1.119    10 C    1.012
    10   6 C    3.939 --    11 C    1.386     9 B    1.012    27 C    0.920
                            29 C    0.392    31 C    0.106
    11   6 C    3.988 --    12 C    1.470    10 C    1.386    45 H    0.962
    12   6 C    3.959 --    11 C    1.470    13 H    0.972    14 C    0.948
                            31 C    0.388    29 C    0.103
    13   1 H    0.999 --    12 C    0.972
    14   6 C    3.981 --    16 C    1.003    15 H    0.968    31 C    0.959
                            12 C    0.948
    15   1 H    0.998 --    14 C    0.968
    16   6 C    3.977 --    26 C    1.841    14 C    1.003    17 B    0.999
    17   5 B    3.376 --    25 O    1.132    18 O    1.128    16 C    0.999
    18   8 O    2.233 --    17 B    1.128    19 C    0.953
    19   6 C    3.943 --    20 C    0.997    21 C    0.991    18 O    0.953
                            22 C    0.936
    20   6 C    3.994 --    19 C    0.997    47 H    0.984    46 H    0.983
                            48 H    0.982
    21   6 C    3.994 --    19 C    0.991    51 H    0.984    50 H    0.984
                            49 H    0.983
    22   6 C    3.942 --    24 C    0.996    23 C    0.991    25 O    0.953
                            19 C    0.936
    23   6 C    3.995 --    22 C    0.991    52 H    0.984    54 H    0.984
                            53 H    0.983
    24   6 C    3.994 --    22 C    0.996    55 H    0.985    57 H    0.983
                            56 H    0.982
    25   8 O    2.235 --    17 B    1.132    22 C    0.953
    26   6 C    3.988 --    16 C    1.841    27 C    1.026    58 H    0.966
    27   6 C    3.982 --    26 C    1.026    28 H    0.968    29 C    0.959
                            10 C    0.920
    28   1 H    0.998 --    27 C    0.968
    29   6 C    3.955 --    30 C    1.430    59 H    0.973    27 C    0.959
                            10 C    0.392    12 C    0.103
    30   6 C    3.984 --    31 C    1.444    29 C    1.430    60 H    0.964
    31   6 C    3.950 --    30 C    1.444    32 H    0.973    14 C    0.959
                            12 C    0.388    10 C    0.106
    32   1 H    0.999 --    31 C    0.973
    33   1 H    0.997 --     1 C    0.983
    34   1 H    0.998 --     1 C    0.985
    35   1 H    0.997 --     1 C    0.982
    36   1 H    0.997 --     4 C    0.983
    37   1 H    0.998 --     4 C    0.984
    38   1 H    0.998 --     4 C    0.984
    39   1 H    0.998 --     6 C    0.984
    40   1 H    0.997 --     6 C    0.982
    41   1 H    0.997 --     6 C    0.983
    42   1 H    0.998 --     7 C    0.984
    43   1 H    0.997 --     7 C    0.983
    44   1 H    0.998 --     7 C    0.984
    45   1 H    0.999 --    11 C    0.962
    46   1 H    0.997 --    20 C    0.983
    47   1 H    0.998 --    20 C    0.984
    48   1 H    0.997 --    20 C    0.982
    49   1 H    0.997 --    21 C    0.983
    50   1 H    0.998 --    21 C    0.984
    51   1 H    0.998 --    21 C    0.984
    52   1 H    0.998 --    23 C    0.984
    53   1 H    0.997 --    23 C    0.983
    54   1 H    0.998 --    23 C    0.984
    55   1 H    0.998 --    24 C    0.985
    56   1 H    0.997 --    24 C    0.982
    57   1 H    0.997 --    24 C    0.983
    58   1 H    0.998 --    26 C    0.966
    59   1 H    0.998 --    29 C    0.973
    60   1 H    0.999 --    30 C    0.964
 ---------------------------------------------------------------------------

molecular dipole:
                 x           y           z       tot (Debye)
 q only:       -0.283      -0.420       0.096
   full:       -0.141      -0.485      -0.006       1.285

           -------------------------------------------------
          | TOTAL ENERGY              -82.298124054259 Eh   |
          | GRADIENT NORM               0.000526624301 Eh/α |
          | HOMO-LUMO GAP               3.180751804600 eV   |
           -------------------------------------------------

 * finished run on 2022/07/09 at 18:33:23.452
