   * xtb version 6.5.0 (homebrew) compiled by 'nhattrup@GPGGRP-SHANNON.CHEME.CMU.EDU' on
          program call               : /opt/homebrew/bin/xtb bvl_bpin2_scan_4-3_xtb.xyz --chrg 0 --uhf 0 --opt --input xcontrol_bvl_bpin2_scan_4-3_xtb

   ID    Z sym.   atoms
    1    6 C      1, 2, 4-7, 10-12, 14, 16, 19-24, 26, 27, 29-31
    2    8 O      3, 8, 18, 25
    3    5 B      9, 17
    4    1 H      13, 15, 28, 32-60
constraining bond 12 31 to    1.9444000 Å, actual value:    1.8281965 Å
constraining bond 10 29 to    2.1667000 Å, actual value:    2.2779384 Å

          :  Hamiltonian                  GFN2-xTB          :
 * total energy  :   -82.1185614 Eh     change       -0.2123528E-08 Eh
 * total energy  :   -82.2513893 Eh     change       -0.1328280E+00 Eh
 * total energy  :   -82.2939097 Eh     change       -0.4252042E-01 Eh
 * total energy  :   -82.2946770 Eh     change       -0.7673033E-03 Eh
 * total energy  :   -82.2932398 Eh     change        0.1437243E-02 Eh
 * total energy  :   -82.2945068 Eh     change       -0.1267062E-02 Eh
 * total energy  :   -82.2953606 Eh     change       -0.8537434E-03 Eh
 * total energy  :   -82.2957235 Eh     change       -0.3629237E-03 Eh
 * total energy  :   -82.2958525 Eh     change       -0.1290095E-03 Eh
 * total energy  :   -82.2961426 Eh     change       -0.2900777E-03 Eh
 * total energy  :   -82.2968370 Eh     change       -0.1471317E-04 Eh
 * total energy  :   -82.2968479 Eh     change       -0.1081266E-04 Eh
 * total energy  :   -82.2968585 Eh     change       -0.1066437E-04 Eh
 * total energy  :   -82.2968715 Eh     change       -0.1298977E-04 Eh
 * total energy  :   -82.2968864 Eh     change       -0.1493434E-04 Eh
 * total energy  :   -82.2969002 Eh     change       -0.1371552E-04 Eh
 * total energy  :   -82.2969119 Eh     change       -0.1173310E-04 Eh
 * total energy  :   -82.2969233 Eh     change       -0.1142336E-04 Eh
 * total energy  :   -82.2969268 Eh     change       -0.3503909E-05 Eh
   *** GEOMETRY OPTIMIZATION CONVERGED AFTER 44 ITERATIONS ***

 final structure:
================
60
 xtb: 6.5.0 (homebrew)
C            3.44436237113287      -37.79202606225873       15.95431436631132
C            3.71464440919119      -38.20173745550840       17.40036257014188
O            3.23848000697528      -37.18594958486125       18.28098116932546
C            2.91974369155044      -39.47491933385873       17.71788569237992
C            5.23469541521366      -38.32066280560327       17.78252651044010
C            5.77721744440577      -39.74732438194895       17.82936291784861
C            6.14342097317328      -37.46807428979782       16.88738758405313
O            5.28597452792339      -37.74843992746569       19.08839663777838
B            4.14328542838139      -37.02313006522483       19.29702764083665
C            3.89980998850517      -36.12882713492492       20.54207270328590
C            4.93417029219132      -35.90107235843996       21.41741633193804
C            4.97991449468085      -35.02650211807953       22.50465663333391
H            5.93153498473609      -34.90063998747085       23.00069739612919
C            3.83367406993143      -34.26095815169600       23.10135378475589
H            4.06852889145201      -33.89593856915514       24.09942739703403
C            2.46564964782696      -34.86186589293472       23.10327711349343
B            1.70190098131379      -34.88773509213095       24.46408327486737
O            2.22061672307526      -34.39493989468582       25.63072905796337
C            1.35172267884325      -34.74967486219954       26.70545742463027
C            1.23081895157572      -33.57543821831617       27.67410217535214
C            2.00458800930056      -35.93364198533992       27.43025576427933
C            0.01928217656943      -35.14284689656360       25.96969123816394
C           -0.98049143258619      -33.98248853243378       25.88565877185282
C           -0.68959430534800      -36.37232206376126       26.53335520837858
O            0.45376540220100      -35.41491463265311       24.63726379550201
C            1.92325906661938      -35.38901442959099       22.00548543577311
C            2.54912050714946      -35.45483119766783       20.65558284746827
H            1.85911153258285      -35.92813648867938       19.95667613955886
C            3.07315136947896      -34.18450088899441       20.06410176648228
C            3.82104656080422      -33.24894673788966       20.70853581796565
C            4.25040370222972      -33.28793974901777       22.04215053190428
H            4.93621279870538      -32.51707806160319       22.36325354897865
H            2.36963839204147      -37.75211157800312       15.79480969358917
H            3.87444508525576      -38.51974872236698       15.27144387614879
H            3.85243403348991      -36.80945775736058       15.74076017249343
H            1.86132504257016      -39.26424130491500       17.58226964673758
H            3.07443581704028      -39.76453398876345       18.75427991085137
H            3.20472153989256      -40.29077761120652       17.06048478105213
H            5.66086492842857      -40.22591866651963       16.86069247151406
H            5.27052834222001      -40.33450711128604       18.58825529102390
H            6.83443584259811      -39.71364300904306       18.08053422245804
H            6.19307970925016      -37.87053148026737       15.88006150565679
H            7.14265054921791      -37.46294279442126       17.31690853652819
H            5.78651162812126      -36.44161180678251       16.85798102192426
H            5.86839802820981      -36.39084051403380       21.16841619629568
H            2.19642539319110      -33.40471955006893       28.14368881777809
H            0.49958961449579      -33.79930627972410       28.44605382422628
H            0.94396479803100      -32.66661491322575       27.15517844259375
H            2.99272142727156      -35.62927484026988       27.76784406796755
H            2.12702590823642      -36.77012215465921       26.74679587438962
H            1.41660597253180      -36.24169325634612       28.28950721198873
H           -1.38975021320115      -33.74500508534020       26.86303170870815
H           -1.79191711700459      -34.27411370368334       25.22296308745979
H           -0.50179388906695      -33.10318556008933       25.46228750329007
H           -0.95659909979898      -36.20859692945967       27.57392754748820
H           -0.06568875315023      -37.25641248306880       26.45302223529633
H           -1.59665203725562      -36.54770326411064       25.96036951827663
H            0.93386789332384      -35.81818532094923       22.08732883555066
H            2.90799610727725      -34.06714552280105       19.00279563796287
H            4.21444369697499      -32.43146694048801       20.11468911254863

          :  Hamiltonian                  GFN2-xTB          :
         :: total energy             -82.296926825735 Eh    ::
         :: gradient norm              0.000853200505 Eh/a0 ::
         :: HOMO-LUMO gap              2.898324938661 eV    ::
         :: SCC energy               -83.375110153705 Eh    ::
         :: -> dispersion             -0.061932992455 Eh    ::
         :: repulsion energy           1.077424783630 Eh    ::

    * Orbital Energies and Occupations

         #    Occupation            Energy/Eh            Energy/eV
      -------------------------------------------------------------
         1        2.0000           -0.6876421             -18.7117
       ...           ...                  ...                  ...
        63        2.0000           -0.4349136             -11.8346
        64        2.0000           -0.4307580             -11.7215
        65        2.0000           -0.4278805             -11.6432
        66        2.0000           -0.4204001             -11.4397
        67        2.0000           -0.4193238             -11.4104
        68        2.0000           -0.4146777             -11.2840
        69        2.0000           -0.4047398             -11.0135
        70        2.0000           -0.3972902             -10.8108
        71        2.0000           -0.3957610             -10.7692
        72        2.0000           -0.3929726             -10.6933
        73        2.0000           -0.3880008             -10.5580
        74        2.0000           -0.3539076              -9.6303
        75        2.0000           -0.3426191              -9.3231 (HOMO)
        76                         -0.2361076              -6.4248 (LUMO)
        77                         -0.2175390              -5.9195
        78                         -0.1896451              -5.1605
        79                         -0.1231422              -3.3509
        80                         -0.0978880              -2.6637
        81                         -0.0721321              -1.9628
        82                          0.0088077               0.2397
        83                          0.0122750               0.3340
        84                          0.0287327               0.7819
        85                          0.0302609               0.8234
        86                          0.0568962               1.5482
       ...                                ...                  ...
       144                          0.6874028              18.7052
      -------------------------------------------------------------
                  HL-Gap            0.1065115 Eh            2.8983 eV

     #   Z          covCN         q      C6AA      α(0)
     1   6 C        3.755    -0.117    22.788     6.807
     2   6 C        3.859     0.129    18.446     6.108
     3   8 O        1.638    -0.375    20.389     6.095
     4   6 C        3.755    -0.116    22.772     6.804
     5   6 C        3.859     0.130    18.445     6.108
     6   6 C        3.755    -0.117    22.798     6.808
     7   6 C        3.755    -0.115    22.763     6.803
     8   8 O        1.638    -0.375    20.384     6.094
     9   5 B        2.659     0.432    15.563     6.642
    10   6 C        3.049    -0.081    29.977     8.980
    11   6 C        2.893    -0.042    29.034     8.834
    12   6 C        3.498    -0.020    22.624     7.063
    13   1 H        0.926     0.030     2.585     2.514
    14   6 C        3.864    -0.010    20.711     6.472
    15   1 H        0.925     0.047     2.352     2.399
    16   6 C        2.863    -0.084    30.095     8.992
    17   5 B        2.661     0.431    15.563     6.641
    18   8 O        1.638    -0.373    20.333     6.087
    19   6 C        3.859     0.129    18.455     6.109
    20   6 C        3.755    -0.117    22.799     6.808
    21   6 C        3.755    -0.116    22.780     6.805
    22   6 C        3.860     0.129    18.457     6.110
    23   6 C        3.755    -0.117    22.787     6.806
    24   6 C        3.755    -0.118    22.808     6.810
    25   8 O        1.638    -0.369    20.274     6.078
    26   6 C        2.897    -0.025    28.628     8.773
    27   6 C        3.863    -0.013    20.760     6.480
    28   1 H        0.924     0.046     2.376     2.411
    29   6 C        3.076    -0.026    28.576     8.764
    30   6 C        2.888    -0.046    29.144     8.851
    31   6 C        3.500    -0.017    22.523     7.043
    32   1 H        0.926     0.031     2.579     2.511
    33   1 H        0.925     0.054     2.273     2.357
    34   1 H        0.925     0.039     2.462     2.454
    35   1 H        0.925     0.051     2.308     2.376
    36   1 H        0.925     0.052     2.300     2.372
    37   1 H        0.925     0.043     2.403     2.424
    38   1 H        0.925     0.042     2.426     2.436
    39   1 H        0.925     0.039     2.458     2.452
    40   1 H        0.925     0.052     2.296     2.369
    41   1 H        0.925     0.054     2.273     2.358
    42   1 H        0.925     0.042     2.422     2.434
    43   1 H        0.925     0.051     2.302     2.373
    44   1 H        0.925     0.043     2.414     2.430
    45   1 H        0.925     0.034     2.533     2.489
    46   1 H        0.925     0.054     2.271     2.357
    47   1 H        0.925     0.040     2.451     2.448
    48   1 H        0.925     0.052     2.295     2.369
    49   1 H        0.925     0.052     2.296     2.370
    50   1 H        0.925     0.044     2.398     2.422
    51   1 H        0.925     0.043     2.416     2.430
    52   1 H        0.925     0.043     2.413     2.429
    53   1 H        0.925     0.053     2.286     2.364
    54   1 H        0.925     0.044     2.397     2.421
    55   1 H        0.925     0.040     2.449     2.447
    56   1 H        0.925     0.052     2.293     2.368
    57   1 H        0.925     0.055     2.261     2.351
    58   1 H        0.925     0.038     2.480     2.462
    59   1 H        0.926     0.029     2.596     2.520
    60   1 H        0.925     0.023     2.692     2.566

Wiberg/Mayer (AO) data.
largest (>0.10) Wiberg bond orders for each atom

     #   Z sym  total        # sym  WBO       # sym  WBO       # sym  WBO
 ---------------------------------------------------------------------------
     1   6 C    3.994 --     2 C    0.997    34 H    0.985    33 H    0.983
                            35 H    0.982
     2   6 C    3.944 --     1 C    0.997     4 C    0.990     3 O    0.954
                             5 C    0.937
     3   8 O    2.223 --     9 B    1.118     2 C    0.954
     4   6 C    3.994 --     2 C    0.990    38 H    0.984    37 H    0.984
                            36 H    0.983
     5   6 C    3.943 --     6 C    0.996     7 C    0.990     8 O    0.954
                             2 C    0.937
     6   6 C    3.994 --     5 C    0.996    39 H    0.985    41 H    0.983
                            40 H    0.982
     7   6 C    3.995 --     5 C    0.990    42 H    0.985    44 H    0.984
                            43 H    0.983
     8   8 O    2.224 --     9 B    1.120     5 C    0.954
     9   5 B    3.382 --     8 O    1.120     3 O    1.118    10 C    1.017
    10   6 C    3.954 --    11 C    1.532     9 B    1.017    27 C    0.943
                            29 C    0.213    31 C    0.119
    11   6 C    3.990 --    10 C    1.532    12 C    1.353    45 H    0.962
    12   6 C    3.947 --    11 C    1.353    13 H    0.974    14 C    0.946
                            31 C    0.481    29 C    0.116
    13   1 H    0.999 --    12 C    0.974
    14   6 C    3.981 --    16 C    1.008    15 H    0.967    31 C    0.959
                            12 C    0.946
    15   1 H    0.997 --    14 C    0.967
    16   6 C    3.977 --    26 C    1.845    14 C    1.008    17 B    0.998
    17   5 B    3.376 --    25 O    1.134    18 O    1.127    16 C    0.998
    18   8 O    2.232 --    17 B    1.127    19 C    0.953
    19   6 C    3.943 --    20 C    0.997    21 C    0.991    18 O    0.953
                            22 C    0.936
    20   6 C    3.994 --    19 C    0.997    47 H    0.984    46 H    0.983
                            48 H    0.982
    21   6 C    3.994 --    19 C    0.991    51 H    0.984    50 H    0.984
                            49 H    0.983
    22   6 C    3.942 --    24 C    0.996    23 C    0.991    25 O    0.952
                            19 C    0.936
    23   6 C    3.995 --    22 C    0.991    52 H    0.984    54 H    0.984
                            53 H    0.983
    24   6 C    3.994 --    22 C    0.996    55 H    0.985    57 H    0.983
                            56 H    0.982
    25   8 O    2.237 --    17 B    1.134    22 C    0.952
    26   6 C    3.987 --    16 C    1.845    27 C    1.014    58 H    0.967
    27   6 C    3.991 --    26 C    1.014    29 C    0.973    28 H    0.969
                            10 C    0.943
    28   1 H    0.998 --    27 C    0.969
    29   6 C    3.969 --    30 C    1.596    27 C    0.973    59 H    0.972
                            10 C    0.213    12 C    0.116
    30   6 C    3.989 --    29 C    1.596    31 C    1.323    60 H    0.964
    31   6 C    3.936 --    30 C    1.323    32 H    0.974    14 C    0.959
                            12 C    0.481    10 C    0.119
    32   1 H    0.999 --    31 C    0.974
    33   1 H    0.997 --     1 C    0.983
    34   1 H    0.998 --     1 C    0.985
    35   1 H    0.997 --     1 C    0.982
    36   1 H    0.997 --     4 C    0.983
    37   1 H    0.998 --     4 C    0.984
    38   1 H    0.998 --     4 C    0.984
    39   1 H    0.998 --     6 C    0.985
    40   1 H    0.997 --     6 C    0.982
    41   1 H    0.997 --     6 C    0.983
    42   1 H    0.998 --     7 C    0.985
    43   1 H    0.997 --     7 C    0.983
    44   1 H    0.998 --     7 C    0.984
    45   1 H    0.999 --    11 C    0.962
    46   1 H    0.997 --    20 C    0.983
    47   1 H    0.998 --    20 C    0.984
    48   1 H    0.997 --    20 C    0.982
    49   1 H    0.997 --    21 C    0.983
    50   1 H    0.998 --    21 C    0.984
    51   1 H    0.998 --    21 C    0.984
    52   1 H    0.998 --    23 C    0.984
    53   1 H    0.997 --    23 C    0.983
    54   1 H    0.998 --    23 C    0.984
    55   1 H    0.998 --    24 C    0.985
    56   1 H    0.997 --    24 C    0.982
    57   1 H    0.997 --    24 C    0.983
    58   1 H    0.998 --    26 C    0.967
    59   1 H    0.999 --    29 C    0.972
    60   1 H    0.999 --    30 C    0.964
 ---------------------------------------------------------------------------

molecular dipole:
                 x           y           z       tot (Debye)
 q only:       -0.247      -0.319       0.216
   full:       -0.083      -0.370       0.113       1.006

           -------------------------------------------------
          | TOTAL ENERGY              -82.296926825735 Eh   |
          | GRADIENT NORM               0.000853200505 Eh/α |
          | HOMO-LUMO GAP               2.898324938661 eV   |
           -------------------------------------------------

 * finished run on 2022/07/09 at 18:33:13.379
