   * xtb version 6.5.0 (homebrew) compiled by 'nhattrup@GPGGRP-SHANNON.CHEME.CMU.EDU' on
          program call               : /opt/homebrew/bin/xtb bvl_bpin2_scan_0-5_xtb.xyz --chrg 0 --uhf 0 --opt --input xcontrol_bvl_bpin2_scan_0-5_xtb

   ID    Z sym.   atoms
    1    6 C      1, 2, 4-7, 10-12, 14, 16, 19-24, 26, 27, 29-31
    2    8 O      3, 8, 18, 25
    3    5 B      9, 17
    4    1 H      13, 15, 28, 32-60
constraining bond 12 31 to    1.5000000 Å, actual value:    1.5036278 Å
constraining bond 10 29 to    1.9444000 Å, actual value:    2.0597249 Å

          :  Hamiltonian                  GFN2-xTB          :
 * total energy  :   -82.2132896 Eh     change       -0.1843688E-08 Eh
 * total energy  :   -82.2707292 Eh     change       -0.5743962E-01 Eh
 * total energy  :   -82.3005046 Eh     change       -0.2977531E-01 Eh
 * total energy  :   -82.3009615 Eh     change       -0.4569583E-03 Eh
 * total energy  :   -82.3011325 Eh     change       -0.1709645E-03 Eh
 * total energy  :   -82.3011668 Eh     change       -0.3430732E-04 Eh
 * total energy  :   -82.3011950 Eh     change       -0.2824503E-04 Eh
 * total energy  :   -82.3012145 Eh     change       -0.1951630E-04 Eh
 * total energy  :   -82.3012252 Eh     change       -0.1066314E-04 Eh
 * total energy  :   -82.3012329 Eh     change       -0.7683401E-05 Eh
 * total energy  :   -82.3012746 Eh     change       -0.1274399E-04 Eh
 * total energy  :   -82.3012883 Eh     change       -0.1363168E-04 Eh
 * total energy  :   -82.3013009 Eh     change       -0.1264088E-04 Eh
 * total energy  :   -82.3013152 Eh     change       -0.1432314E-04 Eh
 * total energy  :   -82.3013290 Eh     change       -0.1375002E-04 Eh
 * total energy  :   -82.3013450 Eh     change       -0.1604868E-04 Eh
 * total energy  :   -82.3013589 Eh     change       -0.1391088E-04 Eh
 * total energy  :   -82.3013731 Eh     change       -0.1412037E-04 Eh
 * total energy  :   -82.3013759 Eh     change       -0.2861696E-05 Eh
   *** GEOMETRY OPTIMIZATION CONVERGED AFTER 22 ITERATIONS ***

 final structure:
================
60
 xtb: 6.5.0 (homebrew)
C            3.38970417637966      -37.85896500532692       15.99982607646669
C            3.67747487412765      -38.19493844088682       17.46134835613748
O            3.22861411268284      -37.12552838887623       18.29263937732639
C            2.86675649025172      -39.43457325349573       17.86010486038018
C            5.20236391915396      -38.31496062760672       17.82698201757233
C            5.71842903992827      -39.74482398615456       17.97192939751366
C            6.11272696149695      -37.54890628251037       16.85909935073998
O            5.28679969208647      -37.65069518049963       19.08864983767771
B            4.15403934953558      -36.91180877657542       19.27632341642484
C            3.93079909469596      -35.93111713810602       20.47367160404547
C            4.94756767067755      -35.74889489372157       21.36309932138873
C            5.01302676111722      -34.71674066257263       22.37419272098479
H            5.95094313260865      -34.71211244669541       22.92162122277024
C            3.83455852932249      -34.15524752754452       23.12877916436651
H            4.08046601044575      -33.78591886104569       24.11691853178338
C            2.48868493897645      -34.76750991279595       23.09190296445528
B            1.71399997180327      -34.84577036127154       24.44537709071795
O            2.20936461651339      -34.38598996588043       25.63506584765985
C            1.33978710825217      -34.80519355512416       26.68610198580541
C            1.18238451078746      -33.67566832663329       27.70130500103125
C            2.01476707312847      -36.00253567291369       27.36760211284152
C            0.02381898780365      -35.19966086069824       25.92223699433339
C           -1.00198536892525      -34.06028670294835       25.87314251237253
C           -0.66060720533571      -36.46669234452231       26.43056431337315
O            0.47711174456310      -35.40935404716285       24.58528000230591
C            1.94951406718395      -35.28362082699463       21.98553166101807
C            2.55737516266026      -35.35499065106644       20.63242268952078
H            1.86710059031621      -35.82185692408954       19.93274016838172
C            3.21513898955984      -34.17459294811509       20.02675481319161
C            3.91832040847904      -33.21780952484853       20.67038668936922
C            4.45411742543204      -33.36824812519211       22.01015853252121
H            5.04254818795410      -32.51389339795566       22.33239979787239
H            2.31322267388377      -37.81025893887986       15.85538861893934
H            3.79697334011710      -38.62908065138732       15.35043079739811
H            3.80922117814884      -36.89594708060329       15.72745986619117
H            1.81010716606996      -39.21164494279611       17.73029986845576
H            3.03309697866392      -39.67120778495777       18.90800337085307
H            3.12598306948759      -40.28950484395638       17.24308408387767
H            5.58323790979458      -40.28977841615467       17.04163542966900
H            5.20905175219046      -40.26589083706330       18.77589703469953
H            6.77848476706314      -39.71325318131438       18.21077935822663
H            6.12806405188856      -38.01783659635463       15.87988518397813
H            7.12137986591629      -37.54440161447276       17.26569641436755
H            5.78350165888816      -36.51681502257958       16.76907774113462
H            5.88270724404335      -36.24317652242751       21.13578151776235
H            2.14209646722175      -33.49559682942790       28.17938391487390
H            0.45748432374079      -33.95327927645648       28.46177909840458
H            0.86870854818503      -32.75529570624767       27.21969142116770
H            2.99320979378692      -35.68960067160680       27.72495862781846
H            2.16118034296766      -36.80757019255503       26.65185037494046
H            1.42816106934577      -36.35871587357917       28.20904225714716
H           -1.42429285479677      -33.86923251890598       26.85514068910411
H           -1.80110873949687      -34.34520867551238       25.19274030563633
H           -0.54010619703642      -33.15516715160516       25.48702093475645
H           -0.93126990781355      -36.35448794189443       27.47696799151776
H           -0.01840301692244      -37.33330023333658       26.31215434261933
H           -1.56371892197186      -36.63557250778967       25.84942705429273
H            0.96406161956125      -35.72095494921785       22.06634444122326
H            3.02542828079614      -34.03486821939133       18.96888827175394
H            4.34151651261419      -32.41047719969075       20.08681255684640

          :  Hamiltonian                  GFN2-xTB          :
         :: total energy             -82.301375920491 Eh    ::
         :: gradient norm              0.000367884736 Eh/a0 ::
         :: HOMO-LUMO gap              2.811665035477 eV    ::
         :: SCC energy               -83.386507553454 Eh    ::
         :: -> dispersion             -0.061059974582 Eh    ::
         :: repulsion energy           1.084196894889 Eh    ::

    * Orbital Energies and Occupations

         #    Occupation            Energy/Eh            Energy/eV
      -------------------------------------------------------------
         1        2.0000           -0.6903522             -18.7854
       ...           ...                  ...                  ...
        63        2.0000           -0.4376243             -11.9084
        64        2.0000           -0.4319886             -11.7550
        65        2.0000           -0.4288035             -11.6683
        66        2.0000           -0.4217075             -11.4752
        67        2.0000           -0.4189265             -11.3996
        68        2.0000           -0.4133929             -11.2490
        69        2.0000           -0.4074779             -11.0880
        70        2.0000           -0.3993605             -10.8672
        71        2.0000           -0.3984659             -10.8428
        72        2.0000           -0.3959917             -10.7755
        73        2.0000           -0.3794763             -10.3261
        74        2.0000           -0.3713296             -10.1044
        75        2.0000           -0.3267795              -8.8921 (HOMO)
        76                         -0.2234527              -6.0805 (LUMO)
        77                         -0.2161029              -5.8805
        78                         -0.1684932              -4.5849
        79                         -0.1021071              -2.7785
        80                         -0.0827343              -2.2513
        81                          0.0059436               0.1617
        82                          0.0095210               0.2591
        83                          0.0157196               0.4278
        84                          0.0268722               0.7312
        85                          0.0296871               0.8078
        86                          0.0564394               1.5358
       ...                                ...                  ...
       144                          0.6968255              18.9616
      -------------------------------------------------------------
                  HL-Gap            0.1033268 Eh            2.8117 eV

     #   Z          covCN         q      C6AA      α(0)
     1   6 C        3.755    -0.117    22.796     6.808
     2   6 C        3.859     0.129    18.452     6.109
     3   8 O        1.638    -0.373    20.334     6.087
     4   6 C        3.755    -0.116    22.782     6.806
     5   6 C        3.859     0.129    18.452     6.109
     6   6 C        3.755    -0.118    22.812     6.810
     7   6 C        3.755    -0.116    22.777     6.805
     8   8 O        1.638    -0.372    20.316     6.084
     9   5 B        2.659     0.435    15.528     6.634
    10   6 C        3.459    -0.065    24.195     7.412
    11   6 C        2.896    -0.054    29.334     8.880
    12   6 C        3.864    -0.005    20.627     6.459
    13   1 H        0.925     0.029     2.605     2.524
    14   6 C        3.865    -0.026    20.993     6.516
    15   1 H        0.925     0.040     2.446     2.446
    16   6 C        2.863    -0.083    30.062     8.987
    17   5 B        2.662     0.432    15.547     6.636
    18   8 O        1.638    -0.373    20.343     6.088
    19   6 C        3.860     0.129    18.454     6.109
    20   6 C        3.755    -0.117    22.799     6.808
    21   6 C        3.755    -0.116    22.779     6.805
    22   6 C        3.860     0.129    18.455     6.109
    23   6 C        3.755    -0.116    22.784     6.806
    24   6 C        3.755    -0.117    22.805     6.809
    25   8 O        1.638    -0.371    20.298     6.081
    26   6 C        2.897    -0.030    28.756     8.792
    27   6 C        3.866    -0.016    20.818     6.488
    28   1 H        0.925     0.044     2.402     2.424
    29   6 C        3.486    -0.013    22.657     7.098
    30   6 C        2.891    -0.063    29.578     8.917
    31   6 C        3.867    -0.003    20.597     6.454
    32   1 H        0.925     0.029     2.604     2.524
    33   1 H        0.925     0.055     2.261     2.352
    34   1 H        0.925     0.040     2.449     2.447
    35   1 H        0.925     0.052     2.300     2.372
    36   1 H        0.925     0.053     2.287     2.365
    37   1 H        0.925     0.044     2.397     2.421
    38   1 H        0.925     0.043     2.413     2.429
    39   1 H        0.925     0.041     2.442     2.444
    40   1 H        0.925     0.052     2.290     2.366
    41   1 H        0.925     0.055     2.259     2.351
    42   1 H        0.925     0.043     2.406     2.426
    43   1 H        0.925     0.053     2.286     2.364
    44   1 H        0.925     0.044     2.402     2.424
    45   1 H        0.925     0.032     2.564     2.504
    46   1 H        0.925     0.054     2.269     2.356
    47   1 H        0.925     0.040     2.454     2.450
    48   1 H        0.925     0.052     2.294     2.369
    49   1 H        0.925     0.052     2.296     2.369
    50   1 H        0.925     0.044     2.400     2.423
    51   1 H        0.925     0.042     2.419     2.432
    52   1 H        0.925     0.043     2.415     2.430
    53   1 H        0.925     0.052     2.289     2.366
    54   1 H        0.925     0.044     2.396     2.421
    55   1 H        0.925     0.040     2.452     2.449
    56   1 H        0.925     0.052     2.294     2.369
    57   1 H        0.925     0.054     2.265     2.353
    58   1 H        0.926     0.036     2.500     2.473
    59   1 H        0.925     0.027     2.624     2.533
    60   1 H        0.925     0.019     2.750     2.593

Wiberg/Mayer (AO) data.
largest (>0.10) Wiberg bond orders for each atom

     #   Z sym  total        # sym  WBO       # sym  WBO       # sym  WBO
 ---------------------------------------------------------------------------
     1   6 C    3.994 --     2 C    0.997    34 H    0.984    33 H    0.982
                            35 H    0.982
     2   6 C    3.943 --     1 C    0.997     4 C    0.991     3 O    0.952
                             5 C    0.936
     3   8 O    2.232 --     9 B    1.129     2 C    0.952
     4   6 C    3.994 --     2 C    0.991    38 H    0.984    37 H    0.984
                            36 H    0.983
     5   6 C    3.941 --     6 C    0.997     7 C    0.991     8 O    0.951
                             2 C    0.936
     6   6 C    3.994 --     5 C    0.997    39 H    0.984    41 H    0.982
                            40 H    0.982
     7   6 C    3.995 --     5 C    0.991    42 H    0.984    44 H    0.984
                            43 H    0.983
     8   8 O    2.236 --     9 B    1.134     5 C    0.951
     9   5 B    3.378 --     8 O    1.134     3 O    1.129    10 C    0.996
    10   6 C    3.958 --    11 C    1.623     9 B    0.996    27 C    0.926
                            29 C    0.235
    11   6 C    3.984 --    10 C    1.623    12 C    1.147    45 H    0.965
                            30 C    0.113
    12   6 C    3.955 --    11 C    1.147    13 H    0.970    14 C    0.896
                            31 C    0.820
    13   1 H    0.999 --    12 C    0.970
    14   6 C    3.936 --    16 C    1.035    15 H    0.969    31 C    0.912
                            12 C    0.896
    15   1 H    0.998 --    14 C    0.969
    16   6 C    3.979 --    26 C    1.824    14 C    1.035    17 B    0.997
    17   5 B    3.375 --    25 O    1.132    18 O    1.127    16 C    0.997
    18   8 O    2.232 --    17 B    1.127    19 C    0.953
    19   6 C    3.943 --    20 C    0.997    21 C    0.991    18 O    0.953
                            22 C    0.937
    20   6 C    3.994 --    19 C    0.997    47 H    0.985    46 H    0.983
                            48 H    0.982
    21   6 C    3.994 --    19 C    0.991    51 H    0.984    50 H    0.984
                            49 H    0.983
    22   6 C    3.943 --    24 C    0.996    23 C    0.991    25 O    0.953
                            19 C    0.937
    23   6 C    3.995 --    22 C    0.991    52 H    0.984    54 H    0.984
                            53 H    0.983
    24   6 C    3.994 --    22 C    0.996    55 H    0.985    57 H    0.983
                            56 H    0.982
    25   8 O    2.235 --    17 B    1.132    22 C    0.953
    26   6 C    3.988 --    16 C    1.824    27 C    1.016    58 H    0.967
    27   6 C    3.980 --    26 C    1.016    28 H    0.968    29 C    0.955
                            10 C    0.926
    28   1 H    0.998 --    27 C    0.968
    29   6 C    3.973 --    30 C    1.678    59 H    0.969    27 C    0.955
                            10 C    0.235
    30   6 C    3.978 --    29 C    1.678    31 C    1.127    60 H    0.967
                            11 C    0.113
    31   6 C    3.951 --    30 C    1.127    32 H    0.970    14 C    0.912
                            12 C    0.820
    32   1 H    0.999 --    31 C    0.970
    33   1 H    0.997 --     1 C    0.982
    34   1 H    0.998 --     1 C    0.984
    35   1 H    0.997 --     1 C    0.982
    36   1 H    0.997 --     4 C    0.983
    37   1 H    0.998 --     4 C    0.984
    38   1 H    0.998 --     4 C    0.984
    39   1 H    0.998 --     6 C    0.984
    40   1 H    0.997 --     6 C    0.982
    41   1 H    0.997 --     6 C    0.982
    42   1 H    0.998 --     7 C    0.984
    43   1 H    0.997 --     7 C    0.983
    44   1 H    0.998 --     7 C    0.984
    45   1 H    0.999 --    11 C    0.965
    46   1 H    0.997 --    20 C    0.983
    47   1 H    0.998 --    20 C    0.985
    48   1 H    0.997 --    20 C    0.982
    49   1 H    0.997 --    21 C    0.983
    50   1 H    0.998 --    21 C    0.984
    51   1 H    0.998 --    21 C    0.984
    52   1 H    0.998 --    23 C    0.984
    53   1 H    0.997 --    23 C    0.983
    54   1 H    0.998 --    23 C    0.984
    55   1 H    0.998 --    24 C    0.985
    56   1 H    0.997 --    24 C    0.982
    57   1 H    0.997 --    24 C    0.983
    58   1 H    0.999 --    26 C    0.967
    59   1 H    0.999 --    29 C    0.969
    60   1 H    0.999 --    30 C    0.967
 ---------------------------------------------------------------------------

molecular dipole:
                 x           y           z       tot (Debye)
 q only:       -0.211      -0.556       0.047
   full:       -0.112      -0.651      -0.006       1.680

           -------------------------------------------------
          | TOTAL ENERGY              -82.301375920491 Eh   |
          | GRADIENT NORM               0.000367884736 Eh/α |
          | HOMO-LUMO GAP               2.811665035477 eV   |
           -------------------------------------------------

 * finished run on 2022/07/09 at 18:33:05.899
