   * xtb version 6.5.0 (homebrew) compiled by 'nhattrup@GPGGRP-SHANNON.CHEME.CMU.EDU' on
          program call               : /opt/homebrew/bin/xtb bvl_bpin2_scan_5-7_xtb.xyz --chrg 0 --uhf 0 --opt --input xcontrol_bvl_bpin2_scan_5-7_xtb

   ID    Z sym.   atoms
    1    6 C      1, 2, 4-7, 10-12, 14, 16, 19-24, 26, 27, 29-31
    2    8 O      3, 8, 18, 25
    3    5 B      9, 17
    4    1 H      13, 15, 28, 32-60
constraining bond 12 31 to    2.0556000 Å, actual value:    1.9452581 Å
constraining bond 10 29 to    1.7222000 Å, actual value:    1.8317364 Å

          :  Hamiltonian                  GFN2-xTB          :
 * total energy  :   -82.1273764 Eh     change       -0.1057970E-08 Eh
 * total energy  :   -82.2624900 Eh     change       -0.1351136E+00 Eh
 * total energy  :   -82.3045174 Eh     change       -0.4202739E-01 Eh
 * total energy  :   -82.3052979 Eh     change       -0.7804895E-03 Eh
 * total energy  :   -82.3056076 Eh     change       -0.3097056E-03 Eh
 * total energy  :   -82.3013094 Eh     change        0.4298142E-02 Eh
 * total energy  :   -82.3061240 Eh     change       -0.4814559E-02 Eh
 * total energy  :   -82.3062493 Eh     change       -0.1253352E-03 Eh
 * total energy  :   -82.3063600 Eh     change       -0.1106139E-03 Eh
 * total energy  :   -82.3065530 Eh     change       -0.1930696E-03 Eh
 * total energy  :   -82.3066041 Eh     change       -0.1895154E-04 Eh
 * total energy  :   -82.3066162 Eh     change       -0.1207373E-04 Eh
 * total energy  :   -82.3066312 Eh     change       -0.1497314E-04 Eh
 * total energy  :   -82.3066398 Eh     change       -0.8621801E-05 Eh
 * total energy  :   -82.3066483 Eh     change       -0.8523274E-05 Eh
 * total energy  :   -82.3066521 Eh     change       -0.3805362E-05 Eh
 * total energy  :   -82.3066596 Eh     change       -0.7497795E-05 Eh
 * total energy  :   -82.3066633 Eh     change       -0.3615426E-05 Eh
 * total energy  :   -82.3066652 Eh     change       -0.1998493E-05 Eh
   *** GEOMETRY OPTIMIZATION CONVERGED AFTER 20 ITERATIONS ***

 final structure:
================
60
 xtb: 6.5.0 (homebrew)
C            3.46801477340819      -37.74260988826349       15.90937008005483
C            3.72044715326388      -38.14299631285660       17.36111571977988
O            3.24741814571405      -37.11010139528167       18.22614560227444
C            2.90770776512428      -39.40345467747905       17.68258277331305
C            5.23549887553056      -38.27380162312556       17.76036629207886
C            5.76046092343589      -39.70518387956555       17.84087085128767
C            6.16306014567042      -37.44707399879029       16.86118032055567
O            5.28104930422666      -37.67719161083802       19.05748391935878
B            4.14758149316111      -36.93952260081800       19.24286029425998
C            3.89586233665768      -36.01084155889167       20.47081037623531
C            4.92681686569003      -35.92364465161786       21.46863903101413
C            4.95142375607781      -35.12448717098352       22.55581600813713
H            5.87116634715303      -35.08847694462123       23.12720424836056
C            3.83898923460255      -34.27832863057667       23.07103185643625
H            4.07231164187501      -33.87926812608378       24.05769134221416
C            2.46435976411115      -34.88236256652762       23.11765004410196
B            1.71684075272126      -34.88434104622515       24.48585782876101
O            2.22256922463014      -34.36275316730459       25.64523630803666
C            1.35506553133315      -34.71299807950628       26.72286798986827
C            1.20746040218422      -33.52402083983031       27.66955017448990
C            2.02417822892346      -35.87193391119693       27.47308285089773
C            0.03275007929620      -35.14387226132807       25.98990794675454
C           -0.98879201415624      -34.00470337526792       25.87970959950303
C           -0.65577877336122      -36.37565681010435       26.57379070576991
O            0.47709015714155      -35.43274494962226       24.66556467487250
C            1.89250669708525      -35.44677093551008       22.05200487459435
C            2.45843039162592      -35.57068710503106       20.70116562277013
H            1.77617120130385      -36.06158674252927       20.01393597635509
C            3.24057931476426      -34.47935739261979       20.04460627922290
C            3.85159367281024      -33.36725246876482       20.69643303846322
C            4.17895517630828      -33.29791548459468       22.00566910886299
H            4.75745378088380      -32.44088871261026       22.32870717248711
H            2.39523499148273      -37.69803333516214       15.73826284287973
H            3.90129662598611      -38.47717518556684       15.23619381021870
H            3.88348501646381      -36.76354351353115       15.69376672046224
H            1.85288462884752      -39.18143757647966       17.53748557181251
H            3.05094655116981      -39.68921925053289       18.72161558404649
H            3.18782954469540      -40.22661871681991       17.03219014813868
H            5.65699303206462      -40.19889765934010       16.87839558528398
H            5.23364663716600      -40.27445297601862       18.59967480775403
H            6.81304742957478      -39.67833899693073       18.11134625780968
H            6.21213059608843      -37.86164730234724       15.85890167227540
H            7.15951442379030      -37.45285342293720       17.29681384779003
H            5.82294032533754      -36.41538793576939       16.81767415433097
H            5.83549916518654      -36.44917791555727       21.20369985687815
H            2.16936143834110      -33.32072438655263       28.13370145668619
H            0.48345063554021      -33.75216519073275       28.44722170182415
H            0.89655754430901      -32.63226882334978       27.13511547711600
H            3.00577955547325      -35.54552855936701       27.80904171099918
H            2.16258929631376      -36.71976462518487       26.80683765235287
H            1.43728413943428      -36.17269976567607       28.33577019727549
H           -1.40560091636065      -33.75498327784302       26.85080939158487
H           -1.79237015178042      -34.32623246689053       25.22113172962070
H           -0.52619601415294      -33.12536620727169       25.43875905167090
H           -0.92209219930405      -36.20147829110113       27.61277289532163
H           -0.01852498446293      -37.25109930530801       26.50346407943916
H           -1.56186072026248      -36.57299662367151       26.00635792601362
H            0.90602727807246      -35.87317566370137       22.17773425918100
H            3.09707739100186      -34.39220922090546       18.97714925968160
H            4.22755639078741      -32.59266488708452       20.03911344037997

          :  Hamiltonian                  GFN2-xTB          :
         :: total energy             -82.306665250421 Eh    ::
         :: gradient norm              0.000541244083 Eh/a0 ::
         :: HOMO-LUMO gap              3.164524184509 eV    ::
         :: SCC energy               -83.387222882050 Eh    ::
         :: -> dispersion             -0.061784736262 Eh    ::
         :: repulsion energy           1.079801406448 Eh    ::

    * Orbital Energies and Occupations

         #    Occupation            Energy/Eh            Energy/eV
      -------------------------------------------------------------
         1        2.0000           -0.6919016             -18.8276
       ...           ...                  ...                  ...
        63        2.0000           -0.4351275             -11.8404
        64        2.0000           -0.4338621             -11.8060
        65        2.0000           -0.4292627             -11.6808
        66        2.0000           -0.4230132             -11.5108
        67        2.0000           -0.4187219             -11.3940
        68        2.0000           -0.4140663             -11.2673
        69        2.0000           -0.4051622             -11.0250
        70        2.0000           -0.4004671             -10.8973
        71        2.0000           -0.3972555             -10.8099
        72        2.0000           -0.3951435             -10.7524
        73        2.0000           -0.3827057             -10.4140
        74        2.0000           -0.3563353              -9.6964
        75        2.0000           -0.3412390              -9.2856 (HOMO)
        76                         -0.2249449              -6.1211 (LUMO)
        77                         -0.1981107              -5.3909
        78                         -0.1785649              -4.8590
        79                         -0.1350297              -3.6743
        80                         -0.0960826              -2.6145
        81                         -0.0193421              -0.5263
        82                          0.0047670               0.1297
        83                          0.0107232               0.2918
        84                          0.0254257               0.6919
        85                          0.0300917               0.8188
        86                          0.0541283               1.4729
       ...                                ...                  ...
       144                          0.6906456              18.7934
      -------------------------------------------------------------
                  HL-Gap            0.1162941 Eh            3.1645 eV

     #   Z          covCN         q      C6AA      α(0)
     1   6 C        3.755    -0.117    22.798     6.808
     2   6 C        3.858     0.130    18.443     6.108
     3   8 O        1.638    -0.378    20.433     6.102
     4   6 C        3.755    -0.116    22.785     6.806
     5   6 C        3.860     0.129    18.448     6.108
     6   6 C        3.755    -0.118    22.812     6.810
     7   6 C        3.755    -0.116    22.777     6.805
     8   8 O        1.638    -0.371    20.313     6.084
     9   5 B        2.658     0.439    15.489     6.627
    10   6 C        3.775    -0.064    21.750     6.645
    11   6 C        2.890    -0.053    29.318     8.877
    12   6 C        3.261    -0.025    27.415     8.459
    13   1 H        0.925     0.025     2.663     2.552
    14   6 C        3.866    -0.015    20.803     6.486
    15   1 H        0.925     0.044     2.401     2.423
    16   6 C        2.864    -0.084    30.088     8.991
    17   5 B        2.662     0.432    15.558     6.639
    18   8 O        1.638    -0.371    20.311     6.083
    19   6 C        3.860     0.129    18.454     6.109
    20   6 C        3.755    -0.117    22.795     6.808
    21   6 C        3.755    -0.116    22.774     6.805
    22   6 C        3.859     0.129    18.453     6.109
    23   6 C        3.755    -0.116    22.781     6.806
    24   6 C        3.755    -0.117    22.802     6.809
    25   8 O        1.638    -0.372    20.326     6.086
    26   6 C        2.896    -0.027    28.673     8.780
    27   6 C        3.862    -0.011    20.733     6.475
    28   1 H        0.925     0.043     2.410     2.428
    29   6 C        3.803    -0.011    20.766     6.488
    30   6 C        2.888    -0.053    29.309     8.876
    31   6 C        3.262    -0.021    27.320     8.442
    32   1 H        0.925     0.025     2.652     2.547
    33   1 H        0.925     0.055     2.261     2.352
    34   1 H        0.925     0.040     2.445     2.445
    35   1 H        0.925     0.052     2.300     2.372
    36   1 H        0.925     0.052     2.289     2.366
    37   1 H        0.925     0.044     2.394     2.420
    38   1 H        0.925     0.043     2.408     2.427
    39   1 H        0.925     0.041     2.441     2.443
    40   1 H        0.925     0.053     2.286     2.364
    41   1 H        0.925     0.055     2.255     2.348
    42   1 H        0.925     0.043     2.406     2.426
    43   1 H        0.925     0.053     2.282     2.362
    44   1 H        0.925     0.043     2.406     2.426
    45   1 H        0.925     0.031     2.571     2.507
    46   1 H        0.925     0.054     2.270     2.356
    47   1 H        0.925     0.039     2.457     2.451
    48   1 H        0.925     0.052     2.297     2.370
    49   1 H        0.925     0.052     2.296     2.370
    50   1 H        0.925     0.044     2.401     2.423
    51   1 H        0.925     0.042     2.422     2.434
    52   1 H        0.925     0.042     2.418     2.432
    53   1 H        0.925     0.052     2.294     2.368
    54   1 H        0.925     0.044     2.400     2.422
    55   1 H        0.925     0.040     2.455     2.450
    56   1 H        0.925     0.052     2.296     2.370
    57   1 H        0.925     0.054     2.269     2.356
    58   1 H        0.925     0.038     2.478     2.462
    59   1 H        0.926     0.035     2.516     2.480
    60   1 H        0.925     0.021     2.721     2.579

Wiberg/Mayer (AO) data.
largest (>0.10) Wiberg bond orders for each atom

     #   Z sym  total        # sym  WBO       # sym  WBO       # sym  WBO
 ---------------------------------------------------------------------------
     1   6 C    3.994 --     2 C    0.997    34 H    0.984    33 H    0.982
                            35 H    0.982
     2   6 C    3.942 --     1 C    0.997     4 C    0.991     3 O    0.951
                             5 C    0.937
     3   8 O    2.224 --     9 B    1.124     2 C    0.951
     4   6 C    3.994 --     2 C    0.991    38 H    0.984    37 H    0.984
                            36 H    0.983
     5   6 C    3.941 --     6 C    0.997     7 C    0.991     8 O    0.950
                             2 C    0.937
     6   6 C    3.994 --     5 C    0.997    39 H    0.984    41 H    0.982
                            40 H    0.982
     7   6 C    3.995 --     5 C    0.991    42 H    0.984    44 H    0.984
                            43 H    0.983
     8   8 O    2.233 --     9 B    1.134     5 C    0.950
     9   5 B    3.379 --     8 O    1.134     3 O    1.124    10 C    1.004
    10   6 C    3.926 --    11 C    1.183     9 B    1.004    27 C    0.889
                            29 C    0.654
    11   6 C    3.987 --    12 C    1.690    10 C    1.183    45 H    0.963
    12   6 C    3.977 --    11 C    1.690    13 H    0.970    14 C    0.961
                            31 C    0.197
    13   1 H    0.999 --    12 C    0.970
    14   6 C    3.987 --    16 C    0.992    15 H    0.969    31 C    0.968
                            12 C    0.961
    15   1 H    0.998 --    14 C    0.969
    16   6 C    3.977 --    26 C    1.828    17 B    1.002    14 C    0.992
    17   5 B    3.376 --    25 O    1.128    18 O    1.127    16 C    1.002
    18   8 O    2.233 --    17 B    1.127    19 C    0.953
    19   6 C    3.943 --    20 C    0.997    21 C    0.991    18 O    0.953
                            22 C    0.936
    20   6 C    3.994 --    19 C    0.997    47 H    0.984    46 H    0.983
                            48 H    0.982
    21   6 C    3.994 --    19 C    0.991    51 H    0.984    50 H    0.984
                            49 H    0.983
    22   6 C    3.943 --    24 C    0.996    23 C    0.990    25 O    0.954
                            19 C    0.936
    23   6 C    3.995 --    22 C    0.990    52 H    0.985    54 H    0.984
                            53 H    0.983
    24   6 C    3.994 --    22 C    0.996    55 H    0.985    57 H    0.983
                            56 H    0.982
    25   8 O    2.232 --    17 B    1.128    22 C    0.954
    26   6 C    3.989 --    16 C    1.828    27 C    1.049    58 H    0.965
    27   6 C    3.966 --    26 C    1.049    28 H    0.968    29 C    0.939
                            10 C    0.889
    28   1 H    0.998 --    27 C    0.968
    29   6 C    3.945 --    30 C    1.204    59 H    0.973    27 C    0.939
                            10 C    0.654
    30   6 C    3.984 --    31 C    1.673    29 C    1.204    60 H    0.965
    31   6 C    3.971 --    30 C    1.673    32 H    0.971    14 C    0.968
                            12 C    0.197
    32   1 H    0.999 --    31 C    0.971
    33   1 H    0.997 --     1 C    0.982
    34   1 H    0.998 --     1 C    0.984
    35   1 H    0.997 --     1 C    0.982
    36   1 H    0.997 --     4 C    0.983
    37   1 H    0.998 --     4 C    0.984
    38   1 H    0.998 --     4 C    0.984
    39   1 H    0.998 --     6 C    0.984
    40   1 H    0.997 --     6 C    0.982
    41   1 H    0.997 --     6 C    0.982
    42   1 H    0.998 --     7 C    0.984
    43   1 H    0.997 --     7 C    0.983
    44   1 H    0.998 --     7 C    0.984
    45   1 H    0.999 --    11 C    0.963
    46   1 H    0.997 --    20 C    0.983
    47   1 H    0.998 --    20 C    0.984
    48   1 H    0.997 --    20 C    0.982
    49   1 H    0.997 --    21 C    0.983
    50   1 H    0.998 --    21 C    0.984
    51   1 H    0.998 --    21 C    0.984
    52   1 H    0.998 --    23 C    0.985
    53   1 H    0.997 --    23 C    0.983
    54   1 H    0.998 --    23 C    0.984
    55   1 H    0.998 --    24 C    0.985
    56   1 H    0.997 --    24 C    0.982
    57   1 H    0.997 --    24 C    0.983
    58   1 H    0.998 --    26 C    0.965
    59   1 H    0.998 --    29 C    0.973
    60   1 H    0.999 --    30 C    0.965
 ---------------------------------------------------------------------------

molecular dipole:
                 x           y           z       tot (Debye)
 q only:       -0.280      -0.508      -0.080
   full:       -0.208      -0.586      -0.162       1.634

           -------------------------------------------------
          | TOTAL ENERGY              -82.306665250421 Eh   |
          | GRADIENT NORM               0.000541244083 Eh/α |
          | HOMO-LUMO GAP               3.164524184509 eV   |
           -------------------------------------------------

 * finished run on 2022/07/09 at 18:33:34.705
