   * xtb version 6.5.0 (homebrew) compiled by 'nhattrup@GPGGRP-SHANNON.CHEME.CMU.EDU' on
          program call               : /opt/homebrew/bin/xtb bvl_bpin2_scan_5-4_xtb.xyz --chrg 0 --uhf 0 --opt --input xcontrol_bvl_bpin2_scan_5-4_xtb

   ID    Z sym.   atoms
    1    6 C      1, 2, 4-7, 10-12, 14, 16, 19-24, 26, 27, 29-31
    2    8 O      3, 8, 18, 25
    3    5 B      9, 17
    4    1 H      13, 15, 28, 32-60
constraining bond 12 31 to    2.0556000 Å, actual value:    1.9413119 Å
constraining bond 10 29 to    2.0556000 Å, actual value:    2.1661584 Å

          :  Hamiltonian                  GFN2-xTB          :
 * total energy  :   -82.1164089 Eh     change       -0.2198249E-08 Eh
 * total energy  :   -82.2508382 Eh     change       -0.1344293E+00 Eh
 * total energy  :   -82.2929770 Eh     change       -0.4213876E-01 Eh
 * total energy  :   -82.2937675 Eh     change       -0.7905024E-03 Eh
 * total energy  :   -82.2937340 Eh     change        0.3343463E-04 Eh
 * total energy  :   -82.2913157 Eh     change        0.2418274E-02 Eh
 * total energy  :   -82.2946731 Eh     change       -0.3357363E-02 Eh
 * total energy  :   -82.2948126 Eh     change       -0.1395326E-03 Eh
 * total energy  :   -82.2949397 Eh     change       -0.1270941E-03 Eh
 * total energy  :   -82.2951478 Eh     change       -0.2080637E-03 Eh
 * total energy  :   -82.2953612 Eh     change       -0.2050219E-04 Eh
 * total energy  :   -82.2953742 Eh     change       -0.1297768E-04 Eh
 * total energy  :   -82.2953795 Eh     change       -0.5275147E-05 Eh
 * total energy  :   -82.2953869 Eh     change       -0.7397231E-05 Eh
 * total energy  :   -82.2953924 Eh     change       -0.5545938E-05 Eh
 * total energy  :   -82.2953980 Eh     change       -0.5573403E-05 Eh
 * total energy  :   -82.2954044 Eh     change       -0.6468508E-05 Eh
 * total energy  :   -82.2954110 Eh     change       -0.6549851E-05 Eh
 * total energy  :   -82.2954151 Eh     change       -0.4151538E-05 Eh
   *** GEOMETRY OPTIMIZATION CONVERGED AFTER 30 ITERATIONS ***

 final structure:
================
60
 xtb: 6.5.0 (homebrew)
C            3.45350965259445      -37.75505664896831       15.94024452740308
C            3.72604331375533      -38.17082042939957       17.38400084689115
O            3.25715609456226      -37.15588633913172       18.26956399135914
C            2.92471135910426      -39.44035304333247       17.70026915759275
C            5.24588047951962      -38.29863415802785       17.76303786422794
C            5.78196911428635      -39.72790484102411       17.79781039947477
C            6.15541434828453      -37.44207452230460       16.87286889687613
O            5.30080882024352      -37.73726071182278       19.07428488204299
B            4.16153473177020      -37.01052523012783       19.28975071509995
C            3.90226503022658      -36.14597065101493       20.55095472966449
C            4.93261193740931      -35.94057184945320       21.46733464334144
C            4.95538095731928      -35.10634825672826       22.55873849168045
H            5.89590905749782      -34.98762772663051       23.07885776989525
C            3.82269726814827      -34.27375589024538       23.08095039544994
H            4.05010370889050      -33.88345762529923       24.07247254220734
C            2.45163414880483      -34.87978418093832       23.10857962654320
B            1.69491880484649      -34.88688160033596       24.47271836380593
O            2.21483964805323      -34.37924345290369       25.63207378239184
C            1.35087793603787      -34.72797596543278       26.71279990843284
C            1.23213245123138      -33.54766950583259       27.67401097138700
C            2.00862837804273      -35.90635451345522       27.44232820453716
C            0.01675584858413      -35.12904822487544       25.98493877295718
C           -0.98199865500664      -33.96874571280434       25.88942599878036
C           -0.69104500162584      -36.35172332045558       26.56453211370816
O            0.44864779589137      -35.41657662734398       24.65508420203256
C            1.90526898742010      -35.43483361967460       22.02732330096673
C            2.52307717586810      -35.53218392952725       20.68140331274572
H            1.84004499358888      -36.02222472259825       19.98875404651251
C            3.11691665084841      -34.31539571764424       20.04935738779614
C            3.82498261416566      -33.31845598303527       20.68977388443583
C            4.18114508310831      -33.28101562355693       22.02085139687268
H            4.83805401764366      -32.48287891347595       22.33860703025632
H            2.37845533409794      -37.70802554796437       15.78474514133427
H            3.87656893372098      -38.48363423385732       15.25390342799180
H            3.86707825122212      -36.77450143556271       15.72788181262794
H            1.86678190579448      -39.22034103003705       17.57574194079661
H            3.08617853922826      -39.73820253733452       18.73332447133168
H            3.19737291939205      -40.25383750031816       17.03478542305814
H            5.65800295611520      -40.19972577542298       16.82676958197280
H            5.27626528091401      -40.31737750274492       18.55565512175252
H            6.84057446851475      -39.70109246542914       18.04374499865109
H            6.19784160069632      -37.83459375436350       15.86125226667808
H            7.15675622084026      -37.44658618496803       17.29731824473108
H            5.80358037188236      -36.41347923732904       16.85531657478616
H            5.86573064866833      -36.42853162522104       21.21083255425854
H            2.20169184657042      -33.36734743516547       28.13173887441691
H            0.51074802209171      -33.77113378289706       28.45536464483934
H            0.93355109939249      -32.64438888694937       27.15205673777375
H            2.99881795178240      -35.59924713958855       27.77132844609844
H            2.12687256711585      -36.74782159735333       26.76420476344013
H            1.42623977794125      -36.20833709248991       28.30755399327368
H           -1.38844474293807      -33.71884510083804       26.86490212166670
H           -1.79539144031326      -34.26724562262175       25.23215993793669
H           -0.50289090060439      -33.09546761300155       25.45400518837757
H           -0.94660659336818      -36.18011593582287       27.60668298762532
H           -0.07079430094149      -37.23840074038020       26.48360843077770
H           -1.60465912503429      -36.52810010866783       26.00233050610861
H            0.91939697727736      -35.86930068711079       22.12283520852575
H            3.01026778695305      -34.25814925908946       18.97637994136104
H            4.23287689187265      -32.53586063007357       20.05980450043955

          :  Hamiltonian                  GFN2-xTB          :
         :: total energy             -82.295415140886 Eh    ::
         :: gradient norm              0.000706006039 Eh/a0 ::
         :: HOMO-LUMO gap              2.838605773904 eV    ::
         :: SCC energy               -83.374555471477 Eh    ::
         :: -> dispersion             -0.062596572628 Eh    ::
         :: repulsion energy           1.078425742029 Eh    ::

    * Orbital Energies and Occupations

         #    Occupation            Energy/Eh            Energy/eV
      -------------------------------------------------------------
         1        2.0000           -0.6878599             -18.7176
       ...           ...                  ...                  ...
        63        2.0000           -0.4339378             -11.8080
        64        2.0000           -0.4322678             -11.7626
        65        2.0000           -0.4261222             -11.5954
        66        2.0000           -0.4213808             -11.4664
        67        2.0000           -0.4192252             -11.4077
        68        2.0000           -0.4154749             -11.3056
        69        2.0000           -0.4042071             -10.9990
        70        2.0000           -0.3970747             -10.8050
        71        2.0000           -0.3969306             -10.8010
        72        2.0000           -0.3931369             -10.6978
        73        2.0000           -0.3877184             -10.5504
        74        2.0000           -0.3538980              -9.6301
        75        2.0000           -0.3426887              -9.3250 (HOMO)
        76                         -0.2383719              -6.4864 (LUMO)
        77                         -0.2172390              -5.9114
        78                         -0.1885987              -5.1320
        79                         -0.1309406              -3.5631
        80                         -0.0972761              -2.6470
        81                         -0.0722805              -1.9669
        82                          0.0093332               0.2540
        83                          0.0108215               0.2945
        84                          0.0288487               0.7850
        85                          0.0294233               0.8006
        86                          0.0572471               1.5578
       ...                                ...                  ...
       144                          0.6882817              18.7291
      -------------------------------------------------------------
                  HL-Gap            0.1043168 Eh            2.8386 eV

     #   Z          covCN         q      C6AA      α(0)
     1   6 C        3.755    -0.117    22.789     6.807
     2   6 C        3.859     0.130    18.442     6.107
     3   8 O        1.638    -0.378    20.432     6.102
     4   6 C        3.755    -0.116    22.775     6.805
     5   6 C        3.859     0.130    18.444     6.108
     6   6 C        3.755    -0.117    22.802     6.809
     7   6 C        3.755    -0.115    22.762     6.803
     8   8 O        1.638    -0.374    20.365     6.092
     9   5 B        2.659     0.433    15.550     6.639
    10   6 C        3.243    -0.075    28.855     8.706
    11   6 C        2.891    -0.045    29.118     8.847
    12   6 C        3.267    -0.025    27.323     8.434
    13   1 H        0.925     0.028     2.617     2.530
    14   6 C        3.865    -0.012    20.747     6.477
    15   1 H        0.925     0.047     2.363     2.404
    16   6 C        2.864    -0.083    30.068     8.988
    17   5 B        2.662     0.431    15.558     6.639
    18   8 O        1.638    -0.372    20.318     6.084
    19   6 C        3.860     0.129    18.455     6.109
    20   6 C        3.755    -0.117    22.798     6.808
    21   6 C        3.755    -0.116    22.779     6.805
    22   6 C        3.860     0.129    18.455     6.109
    23   6 C        3.755    -0.116    22.785     6.806
    24   6 C        3.755    -0.118    22.807     6.809
    25   8 O        1.638    -0.370    20.288     6.080
    26   6 C        2.896    -0.026    28.653     8.777
    27   6 C        3.862    -0.010    20.717     6.473
    28   1 H        0.925     0.046     2.366     2.406
    29   6 C        3.270    -0.020    27.171     8.405
    30   6 C        2.888    -0.047    29.171     8.855
    31   6 C        3.269    -0.021    27.198     8.411
    32   1 H        0.925     0.029     2.605     2.524
    33   1 H        0.925     0.054     2.270     2.356
    34   1 H        0.925     0.039     2.460     2.453
    35   1 H        0.925     0.051     2.308     2.376
    36   1 H        0.925     0.052     2.299     2.371
    37   1 H        0.925     0.043     2.403     2.424
    38   1 H        0.925     0.042     2.423     2.434
    39   1 H        0.925     0.040     2.454     2.450
    40   1 H        0.925     0.052     2.292     2.368
    41   1 H        0.925     0.054     2.270     2.356
    42   1 H        0.925     0.042     2.418     2.432
    43   1 H        0.925     0.052     2.298     2.371
    44   1 H        0.925     0.043     2.414     2.430
    45   1 H        0.925     0.033     2.547     2.496
    46   1 H        0.925     0.054     2.269     2.356
    47   1 H        0.925     0.040     2.454     2.450
    48   1 H        0.925     0.052     2.295     2.369
    49   1 H        0.925     0.052     2.295     2.369
    50   1 H        0.925     0.044     2.399     2.422
    51   1 H        0.925     0.042     2.418     2.432
    52   1 H        0.925     0.043     2.413     2.429
    53   1 H        0.925     0.052     2.289     2.366
    54   1 H        0.925     0.044     2.398     2.422
    55   1 H        0.925     0.040     2.451     2.448
    56   1 H        0.925     0.052     2.292     2.368
    57   1 H        0.925     0.055     2.264     2.353
    58   1 H        0.925     0.038     2.477     2.461
    59   1 H        0.926     0.033     2.548     2.496
    60   1 H        0.925     0.023     2.694     2.567

Wiberg/Mayer (AO) data.
largest (>0.10) Wiberg bond orders for each atom

     #   Z sym  total        # sym  WBO       # sym  WBO       # sym  WBO
 ---------------------------------------------------------------------------
     1   6 C    3.994 --     2 C    0.997    34 H    0.985    33 H    0.983
                            35 H    0.982
     2   6 C    3.944 --     1 C    0.997     4 C    0.990     3 O    0.954
                             5 C    0.937
     3   8 O    2.219 --     9 B    1.115     2 C    0.954
     4   6 C    3.994 --     2 C    0.990    38 H    0.985    37 H    0.984
                            36 H    0.983
     5   6 C    3.942 --     6 C    0.997     7 C    0.991     8 O    0.953
                             2 C    0.937
     6   6 C    3.994 --     5 C    0.997    39 H    0.984    41 H    0.983
                            40 H    0.982
     7   6 C    3.995 --     5 C    0.991    42 H    0.984    44 H    0.984
                            43 H    0.983
     8   8 O    2.225 --     9 B    1.123     5 C    0.953
     9   5 B    3.384 --     8 O    1.123     3 O    1.115    10 C    1.019
    10   6 C    3.939 --    11 C    1.397     9 B    1.019    27 C    0.931
                            29 C    0.341    31 C    0.128
    11   6 C    3.990 --    12 C    1.498    10 C    1.397    45 H    0.962
    12   6 C    3.960 --    11 C    1.498    13 H    0.972    14 C    0.957
                            31 C    0.330    29 C    0.123
    13   1 H    0.999 --    12 C    0.972
    14   6 C    3.987 --    16 C    0.999    15 H    0.968    31 C    0.968
                            12 C    0.957
    15   1 H    0.998 --    14 C    0.968
    16   6 C    3.977 --    26 C    1.847    14 C    0.999    17 B    0.999
    17   5 B    3.376 --    25 O    1.132    18 O    1.128    16 C    0.999
    18   8 O    2.233 --    17 B    1.128    19 C    0.953
    19   6 C    3.943 --    20 C    0.997    21 C    0.991    18 O    0.953
                            22 C    0.937
    20   6 C    3.994 --    19 C    0.997    47 H    0.985    46 H    0.983
                            48 H    0.982
    21   6 C    3.994 --    19 C    0.991    51 H    0.984    50 H    0.984
                            49 H    0.983
    22   6 C    3.942 --    24 C    0.996    23 C    0.991    25 O    0.953
                            19 C    0.937
    23   6 C    3.995 --    22 C    0.991    52 H    0.984    54 H    0.984
                            53 H    0.983
    24   6 C    3.994 --    22 C    0.996    55 H    0.985    57 H    0.983
                            56 H    0.982
    25   8 O    2.236 --    17 B    1.132    22 C    0.953
    26   6 C    3.988 --    16 C    1.847    27 C    1.022    58 H    0.966
    27   6 C    3.987 --    26 C    1.022    28 H    0.968    29 C    0.968
                            10 C    0.931
    28   1 H    0.998 --    27 C    0.968
    29   6 C    3.955 --    30 C    1.449    59 H    0.973    27 C    0.968
                            10 C    0.341    12 C    0.123
    30   6 C    3.989 --    31 C    1.467    29 C    1.449    60 H    0.964
    31   6 C    3.948 --    30 C    1.467    32 H    0.973    14 C    0.968
                            12 C    0.330    10 C    0.128
    32   1 H    0.999 --    31 C    0.973
    33   1 H    0.997 --     1 C    0.983
    34   1 H    0.998 --     1 C    0.985
    35   1 H    0.997 --     1 C    0.982
    36   1 H    0.997 --     4 C    0.983
    37   1 H    0.998 --     4 C    0.984
    38   1 H    0.998 --     4 C    0.985
    39   1 H    0.998 --     6 C    0.984
    40   1 H    0.997 --     6 C    0.982
    41   1 H    0.997 --     6 C    0.983
    42   1 H    0.998 --     7 C    0.984
    43   1 H    0.997 --     7 C    0.983
    44   1 H    0.998 --     7 C    0.984
    45   1 H    0.999 --    11 C    0.962
    46   1 H    0.997 --    20 C    0.983
    47   1 H    0.998 --    20 C    0.985
    48   1 H    0.997 --    20 C    0.982
    49   1 H    0.997 --    21 C    0.983
    50   1 H    0.998 --    21 C    0.984
    51   1 H    0.998 --    21 C    0.984
    52   1 H    0.998 --    23 C    0.984
    53   1 H    0.997 --    23 C    0.983
    54   1 H    0.998 --    23 C    0.984
    55   1 H    0.998 --    24 C    0.985
    56   1 H    0.997 --    24 C    0.982
    57   1 H    0.997 --    24 C    0.983
    58   1 H    0.998 --    26 C    0.966
    59   1 H    0.998 --    29 C    0.973
    60   1 H    0.999 --    30 C    0.964
 ---------------------------------------------------------------------------

molecular dipole:
                 x           y           z       tot (Debye)
 q only:       -0.288      -0.355       0.120
   full:       -0.129      -0.412      -0.000       1.098

           -------------------------------------------------
          | TOTAL ENERGY              -82.295415140886 Eh   |
          | GRADIENT NORM               0.000706006039 Eh/α |
          | HOMO-LUMO GAP               2.838605773904 eV   |
           -------------------------------------------------

 * finished run on 2022/07/09 at 18:33:23.102
