   * xtb version 6.5.0 (homebrew) compiled by 'nhattrup@GPGGRP-SHANNON.CHEME.CMU.EDU' on
          program call               : /opt/homebrew/bin/xtb bvl_bpin2_scan_0-4_xtb.xyz --chrg 0 --uhf 0 --opt --input xcontrol_bvl_bpin2_scan_0-4_xtb

   ID    Z sym.   atoms
    1    6 C      1, 2, 4-7, 10-12, 14, 16, 19-24, 26, 27, 29-31
    2    8 O      3, 8, 18, 25
    3    5 B      9, 17
    4    1 H      13, 15, 28, 32-60
constraining bond 12 31 to    1.5000000 Å, actual value:    1.5028897 Å
constraining bond 10 29 to    2.0556000 Å, actual value:    2.1701322 Å

          :  Hamiltonian                  GFN2-xTB          :
 * total energy  :   -82.2203854 Eh     change       -0.1104397E-08 Eh
 * total energy  :   -82.2760205 Eh     change       -0.5563517E-01 Eh
 * total energy  :   -82.3070931 Eh     change       -0.3107259E-01 Eh
 * total energy  :   -82.3076334 Eh     change       -0.5402814E-03 Eh
 * total energy  :   -82.3078750 Eh     change       -0.2416363E-03 Eh
 * total energy  :   -82.3079183 Eh     change       -0.4326428E-04 Eh
 * total energy  :   -82.3079555 Eh     change       -0.3719226E-04 Eh
 * total energy  :   -82.3079773 Eh     change       -0.2181465E-04 Eh
 * total energy  :   -82.3079926 Eh     change       -0.1532858E-04 Eh
 * total energy  :   -82.3080017 Eh     change       -0.9087591E-05 Eh
 * total energy  :   -82.3080531 Eh     change       -0.1545377E-04 Eh
 * total energy  :   -82.3080696 Eh     change       -0.1649250E-04 Eh
 * total energy  :   -82.3080851 Eh     change       -0.1544054E-04 Eh
 * total energy  :   -82.3080989 Eh     change       -0.1383936E-04 Eh
 * total energy  :   -82.3081121 Eh     change       -0.1316625E-04 Eh
 * total energy  :   -82.3081255 Eh     change       -0.1342121E-04 Eh
 * total energy  :   -82.3081396 Eh     change       -0.1410391E-04 Eh
 * total energy  :   -82.3081538 Eh     change       -0.1423788E-04 Eh
 * total energy  :   -82.3081573 Eh     change       -0.3453958E-05 Eh
   *** GEOMETRY OPTIMIZATION CONVERGED AFTER 22 ITERATIONS ***

 final structure:
================
60
 xtb: 6.5.0 (homebrew)
C            3.34109133228062      -37.92835754857690       16.06056652481157
C            3.64959026604329      -38.22195446849882       17.52705690616221
O            3.21892054059678      -37.12577892875180       18.33172311689365
C            2.83888161215636      -39.44484341662402       17.97490836946676
C            5.17924404480513      -38.33925004569941       17.87323442200512
C            5.69027386919652      -39.76715958184266       18.05218088660799
C            6.07831200083325      -37.60732423656676       16.86896332560983
O            5.28639343730233      -37.63836059945911       19.11284919331715
B            4.16028881702145      -36.88623672171571       19.29441830543792
C            3.95653984438465      -35.87031160256726       20.46332428854637
C            4.97343115815469      -35.66279549384172       21.33286712670547
C            5.04458351879065      -34.63660915925144       22.35753659672536
H            5.98032397712382      -34.64456561635963       22.90752893395598
C            3.85976144124720      -34.09413331784680       23.12106937804568
H            4.09986420110704      -33.74881396390219       24.11936465221189
C            2.51610447513309      -34.70623623407464       23.06038178084810
B            1.73370991725124      -34.82491461187922       24.40694401234062
O            2.22270482309399      -34.40320044935289       25.61322607062403
C            1.34950487792242      -34.85934057177539       26.64589365210358
C            1.18555933036822      -33.76545801207849       27.69833547069108
C            2.02411101804009      -36.07800881786522       27.28886749191260
C            0.03753126793260      -35.23011830912180       25.86356739066395
C           -0.99013498459836      -34.09150382060715       25.84819200359410
C           -0.64667312176669      -36.51477896856456       26.32583992191304
O            0.49714723856662      -35.39417984858446       24.52239003257027
C            1.98382963669323      -35.19487625838214       21.93774842909446
C            2.60788657103881      -35.23313190918354       20.58631420764925
H            1.91840605388658      -35.68521558031142       19.87466971419125
C            3.20827157834489      -34.00222969932450       20.02419387966117
C            3.94114348342916      -33.09469909367979       20.68569438573088
C            4.48644290844560      -33.28097275131356       22.02345281213299
H            5.07297876511399      -32.43409556488375       22.36647149998261
H            2.26274545662742      -37.87757063350951       15.93149718471759
H            3.73394818385996      -38.71979589603759       15.42814792632897
H            3.76141365485516      -36.97624267806628       15.75337514881471
H            1.78148937499120      -39.22013930598992       17.85457318847989
H            3.02000762393283      -39.65097840358788       19.02678840302903
H            3.08437526564157      -40.31923298065777       17.37988269273944
H            5.53770006116595      -40.33828602729962       17.14043498732860
H            5.19078745966606      -40.26172448366652       18.87877806089242
H            6.75411204771419      -39.73469478865483       18.27348987006629
H            6.07546864858808      -38.10467418514848       15.90374565733331
H            7.09334524460033      -37.59686848874457       17.25927694065662
H            5.75314643187444      -36.57640648576358       16.75420439513418
H            5.90035600540740      -36.18323965093634       21.13026321770108
H            2.14283689911844      -33.59998574798566       28.18645177088444
H            0.45800732879318      -34.07037505725797       28.44570633415004
H            0.87194601761950      -32.82977620130094       27.24715450096036
H            3.00043114025137      -35.77563164379365       27.66081740468884
H            2.17512998854640      -36.85773585488557       26.54653447804769
H            1.43477766829092      -36.46395060190950       28.11513332086017
H           -1.41749116031448      -33.93464341794332       26.83405311407711
H           -1.78543675936997      -34.35455298473964       25.15463695317001
H           -0.52813515543978      -33.17299111944934       25.49526511965497
H           -0.92189620133000      -36.43864497273626       27.37429147117613
H           -0.00235946251377      -37.37575109288766       26.18074264601782
H           -1.54702139311208      -36.66539314260374       25.73547102537429
H            0.99858923712603      -35.63525937280922       22.00211437438115
H            2.99202711729997      -33.81389714699952       18.97913303823871
H            4.33736537615801      -32.24913243215739       20.13807199289873

          :  Hamiltonian                  GFN2-xTB          :
         :: total energy             -82.308157279693 Eh    ::
         :: gradient norm              0.000379983277 Eh/a0 ::
         :: HOMO-LUMO gap              3.033867177661 eV    ::
         :: SCC energy               -83.395732686393 Eh    ::
         :: -> dispersion             -0.061589073385 Eh    ::
         :: repulsion energy           1.086659459476 Eh    ::

    * Orbital Energies and Occupations

         #    Occupation            Energy/Eh            Energy/eV
      -------------------------------------------------------------
         1        2.0000           -0.6889926             -18.7484
       ...           ...                  ...                  ...
        63        2.0000           -0.4375477             -11.9063
        64        2.0000           -0.4301834             -11.7059
        65        2.0000           -0.4295548             -11.6888
        66        2.0000           -0.4208103             -11.4508
        67        2.0000           -0.4190519             -11.4030
        68        2.0000           -0.4132334             -11.2447
        69        2.0000           -0.4070299             -11.0758
        70        2.0000           -0.3982742             -10.8376
        71        2.0000           -0.3981236             -10.8335
        72        2.0000           -0.3961501             -10.7798
        73        2.0000           -0.3815230             -10.3818
        74        2.0000           -0.3664493              -9.9716
        75        2.0000           -0.3341261              -9.0920 (HOMO)
        76                         -0.2226335              -6.0582 (LUMO)
        77                         -0.2139648              -5.8223
        78                         -0.1771785              -4.8213
        79                         -0.1021552              -2.7798
        80                         -0.0888391              -2.4174
        81                          0.0076395               0.2079
        82                          0.0091044               0.2477
        83                          0.0155805               0.4240
        84                          0.0278969               0.7591
        85                          0.0294674               0.8018
        86                          0.0573586               1.5608
       ...                                ...                  ...
       144                          0.6936691              18.8757
      -------------------------------------------------------------
                  HL-Gap            0.1114926 Eh            3.0339 eV

     #   Z          covCN         q      C6AA      α(0)
     1   6 C        3.755    -0.117    22.795     6.808
     2   6 C        3.859     0.129    18.453     6.109
     3   8 O        1.638    -0.372    20.321     6.085
     4   6 C        3.755    -0.116    22.779     6.805
     5   6 C        3.859     0.129    18.452     6.109
     6   6 C        3.755    -0.118    22.808     6.810
     7   6 C        3.755    -0.116    22.776     6.805
     8   8 O        1.638    -0.372    20.331     6.086
     9   5 B        2.660     0.433    15.546     6.638
    10   6 C        3.232    -0.072    28.890     8.725
    11   6 C        2.896    -0.046    29.137     8.850
    12   6 C        3.863    -0.007    20.668     6.465
    13   1 H        0.925     0.029     2.599     2.521
    14   6 C        3.864    -0.024    20.956     6.510
    15   1 H        0.925     0.040     2.443     2.444
    16   6 C        2.863    -0.083    30.076     8.989
    17   5 B        2.663     0.432    15.546     6.636
    18   8 O        1.638    -0.373    20.346     6.089
    19   6 C        3.860     0.129    18.453     6.109
    20   6 C        3.755    -0.117    22.799     6.808
    21   6 C        3.755    -0.116    22.779     6.805
    22   6 C        3.860     0.129    18.455     6.109
    23   6 C        3.755    -0.116    22.784     6.806
    24   6 C        3.755    -0.117    22.805     6.809
    25   8 O        1.638    -0.370    20.295     6.081
    26   6 C        2.898    -0.030    28.756     8.792
    27   6 C        3.866    -0.015    20.796     6.485
    28   1 H        0.925     0.044     2.393     2.419
    29   6 C        3.259    -0.019    27.316     8.446
    30   6 C        2.891    -0.056    29.382     8.887
    31   6 C        3.866    -0.006    20.636     6.460
    32   1 H        0.925     0.029     2.601     2.522
    33   1 H        0.925     0.055     2.264     2.353
    34   1 H        0.925     0.040     2.453     2.449
    35   1 H        0.925     0.052     2.301     2.372
    36   1 H        0.925     0.053     2.289     2.366
    37   1 H        0.925     0.044     2.400     2.423
    38   1 H        0.925     0.042     2.417     2.431
    39   1 H        0.925     0.040     2.445     2.445
    40   1 H        0.925     0.052     2.293     2.368
    41   1 H        0.925     0.055     2.264     2.353
    42   1 H        0.925     0.043     2.410     2.428
    43   1 H        0.925     0.052     2.290     2.366
    44   1 H        0.925     0.044     2.402     2.424
    45   1 H        0.925     0.033     2.541     2.493
    46   1 H        0.925     0.054     2.269     2.356
    47   1 H        0.925     0.040     2.453     2.449
    48   1 H        0.925     0.052     2.294     2.368
    49   1 H        0.925     0.052     2.295     2.369
    50   1 H        0.925     0.044     2.400     2.423
    51   1 H        0.925     0.042     2.417     2.431
    52   1 H        0.925     0.043     2.414     2.430
    53   1 H        0.925     0.053     2.288     2.365
    54   1 H        0.925     0.044     2.397     2.421
    55   1 H        0.925     0.040     2.451     2.448
    56   1 H        0.925     0.052     2.294     2.369
    57   1 H        0.925     0.055     2.264     2.353
    58   1 H        0.926     0.036     2.503     2.474
    59   1 H        0.925     0.026     2.650     2.546
    60   1 H        0.925     0.021     2.722     2.580

Wiberg/Mayer (AO) data.
largest (>0.10) Wiberg bond orders for each atom

     #   Z sym  total        # sym  WBO       # sym  WBO       # sym  WBO
 ---------------------------------------------------------------------------
     1   6 C    3.994 --     2 C    0.997    34 H    0.985    33 H    0.982
                            35 H    0.982
     2   6 C    3.943 --     1 C    0.997     4 C    0.991     3 O    0.953
                             5 C    0.936
     3   8 O    2.232 --     9 B    1.128     2 C    0.953
     4   6 C    3.994 --     2 C    0.991    38 H    0.984    37 H    0.984
                            36 H    0.983
     5   6 C    3.942 --     6 C    0.997     7 C    0.991     8 O    0.952
                             2 C    0.936
     6   6 C    3.994 --     5 C    0.997    39 H    0.984    41 H    0.983
                            40 H    0.982
     7   6 C    3.995 --     5 C    0.991    42 H    0.984    44 H    0.984
                            43 H    0.983
     8   8 O    2.233 --     9 B    1.131     5 C    0.952
     9   5 B    3.378 --     8 O    1.131     3 O    1.128    10 C    0.999
    10   6 C    3.966 --    11 C    1.694     9 B    0.999    27 C    0.940
                            29 C    0.149
    11   6 C    3.987 --    10 C    1.694    12 C    1.125    45 H    0.965
    12   6 C    3.953 --    11 C    1.125    13 H    0.970    14 C    0.896
                            31 C    0.839
    13   1 H    0.999 --    12 C    0.970
    14   6 C    3.938 --    16 C    1.039    15 H    0.969    31 C    0.914
                            12 C    0.896
    15   1 H    0.998 --    14 C    0.969
    16   6 C    3.979 --    26 C    1.823    14 C    1.039    17 B    0.996
    17   5 B    3.375 --    25 O    1.133    18 O    1.127    16 C    0.996
    18   8 O    2.232 --    17 B    1.127    19 C    0.953
    19   6 C    3.943 --    20 C    0.997    21 C    0.991    18 O    0.953
                            22 C    0.937
    20   6 C    3.994 --    19 C    0.997    47 H    0.984    46 H    0.983
                            48 H    0.982
    21   6 C    3.994 --    19 C    0.991    51 H    0.984    50 H    0.984
                            49 H    0.983
    22   6 C    3.942 --    24 C    0.996    23 C    0.991    25 O    0.953
                            19 C    0.937
    23   6 C    3.995 --    22 C    0.991    52 H    0.984    54 H    0.984
                            53 H    0.983
    24   6 C    3.994 --    22 C    0.996    55 H    0.985    57 H    0.983
                            56 H    0.982
    25   8 O    2.236 --    17 B    1.133    22 C    0.953
    26   6 C    3.988 --    16 C    1.823    27 C    1.009    58 H    0.967
    27   6 C    3.986 --    26 C    1.009    28 H    0.969    29 C    0.967
                            10 C    0.940
    28   1 H    0.998 --    27 C    0.969
    29   6 C    3.980 --    30 C    1.758    59 H    0.969    27 C    0.967
                            10 C    0.149
    30   6 C    3.984 --    29 C    1.758    31 C    1.105    60 H    0.967
    31   6 C    3.949 --    30 C    1.105    32 H    0.971    14 C    0.914
                            12 C    0.839
    32   1 H    0.999 --    31 C    0.971
    33   1 H    0.997 --     1 C    0.982
    34   1 H    0.998 --     1 C    0.985
    35   1 H    0.997 --     1 C    0.982
    36   1 H    0.997 --     4 C    0.983
    37   1 H    0.998 --     4 C    0.984
    38   1 H    0.998 --     4 C    0.984
    39   1 H    0.998 --     6 C    0.984
    40   1 H    0.997 --     6 C    0.982
    41   1 H    0.997 --     6 C    0.983
    42   1 H    0.998 --     7 C    0.984
    43   1 H    0.997 --     7 C    0.983
    44   1 H    0.998 --     7 C    0.984
    45   1 H    0.999 --    11 C    0.965
    46   1 H    0.997 --    20 C    0.983
    47   1 H    0.998 --    20 C    0.984
    48   1 H    0.997 --    20 C    0.982
    49   1 H    0.997 --    21 C    0.983
    50   1 H    0.998 --    21 C    0.984
    51   1 H    0.998 --    21 C    0.984
    52   1 H    0.998 --    23 C    0.984
    53   1 H    0.997 --    23 C    0.983
    54   1 H    0.998 --    23 C    0.984
    55   1 H    0.998 --    24 C    0.985
    56   1 H    0.997 --    24 C    0.982
    57   1 H    0.997 --    24 C    0.983
    58   1 H    0.999 --    26 C    0.967
    59   1 H    0.999 --    29 C    0.969
    60   1 H    0.999 --    30 C    0.967
 ---------------------------------------------------------------------------

molecular dipole:
                 x           y           z       tot (Debye)
 q only:       -0.212      -0.554       0.106
   full:       -0.128      -0.660       0.074       1.718

           -------------------------------------------------
          | TOTAL ENERGY              -82.308157279693 Eh   |
          | GRADIENT NORM               0.000379983277 Eh/α |
          | HOMO-LUMO GAP               3.033867177661 eV   |
           -------------------------------------------------

 * finished run on 2022/07/09 at 18:33:01.767
