   * xtb version 6.5.0 (homebrew) compiled by 'nhattrup@GPGGRP-SHANNON.CHEME.CMU.EDU' on
          program call               : /opt/homebrew/bin/xtb bvl_bpin2_scan_5-8_xtb.xyz --chrg 0 --uhf 0 --opt --input xcontrol_bvl_bpin2_scan_5-8_xtb

   ID    Z sym.   atoms
    1    6 C      1, 2, 4-7, 10-12, 14, 16, 19-24, 26, 27, 29-31
    2    8 O      3, 8, 18, 25
    3    5 B      9, 17
    4    1 H      13, 15, 28, 32-60
constraining bond 12 31 to    2.0556000 Å, actual value:    1.9466405 Å
constraining bond 10 29 to    1.6111000 Å, actual value:    1.7205456 Å

          :  Hamiltonian                  GFN2-xTB          :
 * total energy  :   -82.1324169 Eh     change       -0.1142425E-08 Eh
 * total energy  :   -82.2638852 Eh     change       -0.1314683E+00 Eh
 * total energy  :   -82.3077518 Eh     change       -0.4386660E-01 Eh
 * total energy  :   -82.3084682 Eh     change       -0.7164679E-03 Eh
 * total energy  :   -82.3086027 Eh     change       -0.1344108E-03 Eh
 * total energy  :   -82.3052806 Eh     change        0.3322038E-02 Eh
 * total energy  :   -82.3092845 Eh     change       -0.4003886E-02 Eh
 * total energy  :   -82.3094332 Eh     change       -0.1486545E-03 Eh
 * total energy  :   -82.3095562 Eh     change       -0.1230148E-03 Eh
 * total energy  :   -82.3097829 Eh     change       -0.2267616E-03 Eh
 * total energy  :   -82.3098022 Eh     change       -0.1923314E-04 Eh
 * total energy  :   -82.3098269 Eh     change       -0.2476788E-04 Eh
 * total energy  :   -82.3098383 Eh     change       -0.1132903E-04 Eh
 * total energy  :   -82.3098501 Eh     change       -0.1180804E-04 Eh
 * total energy  :   -82.3098580 Eh     change       -0.7932100E-05 Eh
 * total energy  :   -82.3098536 Eh     change        0.4412223E-05 Eh
 * total energy  :   -82.3098608 Eh     change       -0.7208327E-05 Eh
 * total energy  :   -82.3098647 Eh     change       -0.3927139E-05 Eh
   *** GEOMETRY OPTIMIZATION CONVERGED AFTER 18 ITERATIONS ***

 final structure:
================
60
 xtb: 6.5.0 (homebrew)
C            3.47895366369838      -37.74273227221303       15.89021976396170
C            3.72600306774402      -38.12583353376817       17.34720165545912
O            3.26320568553638      -37.07651284533811       18.19832895190020
C            2.89981854948363      -39.37243628931874       17.68734439107610
C            5.23852940048139      -38.26700073494393       17.75076026311184
C            5.74987485275261      -39.70233966988363       17.84276202079614
C            6.17525794498429      -37.45593770806547       16.84703700211791
O            5.28519206599345      -37.66025974897556       19.04390248839658
B            4.15967003591910      -36.90965666474764       19.21767078372183
C            3.90802584786319      -35.95669238550478       20.43387127745407
C            4.93548583913173      -35.91582552991392       21.45834846786665
C            4.95072967616118      -35.14168297082942       22.55721902674109
H            5.85986107203401      -35.13689165260384       23.14793460296803
C            3.83852210321944      -34.30492296625000       23.07947728418047
H            4.07060267107146      -33.91460496460816       24.06975578509971
C            2.46409514237774      -34.91334817963015       23.12016129500545
B            1.71343878822575      -34.90935247763994       24.48624217547162
O            2.21843274213254      -34.37041994451489       25.63840746452346
C            1.35305804430738      -34.70697688309139       26.72143256705505
C            1.20490357600623      -33.50428030117505       27.65054772207277
C            2.02595404718908      -35.85335145604216       27.48746315584939
C            0.03094818771330      -35.15153436078472       25.99642685777660
C           -0.99414311106273      -34.01673900081270       25.87328450724875
C           -0.65466065262099      -36.37434389256678       26.60273535923081
O            0.47450617996875      -35.45849491525698       24.67555209983451
C            1.89577531478390      -35.47516878789656       22.04999582109928
C            2.45250862912925      -35.58869529506851       20.69940056378589
H            1.77679197066248      -36.07708246428547       20.00597224829148
C            3.28158604380373      -34.52321626908211       20.05203431137900
C            3.84942852915858      -33.37838220469318       20.71979633159824
C            4.16778282635136      -33.31312155784538       22.02539985488489
H            4.71292892251731      -32.43777449363005       22.36006490297093
H            2.40686961814124      -37.68392774853331       15.71923643732495
H            3.90025204762897      -38.49377661163098       15.22770530150655
H            3.90955697925129      -36.77359566024830       15.66010230645474
H            1.84736525594714      -39.14049212350112       17.54067786458780
H            3.04162548538442      -39.64438674495860       18.73033689995500
H            3.16969168325347      -40.20802203805393       17.04870261330959
H            5.63626090692327      -40.20331268773115       16.88521225885250
H            5.22099202108124      -40.25916041852631       18.60928976945981
H            6.80406944177591      -39.68383664086948       18.10747717160825
H            6.22369267718774      -37.88106713297709       15.84912730523089
H            7.17044937956469      -37.46551726972820       17.28545606822386
H            5.84359607000906      -36.42205477278172       16.79208607660534
H            5.83849820988676      -36.44969773039673       21.19271874196737
H            2.16790591173273      -33.29200585017571       28.10837147007618
H            0.48377913638493      -33.72182360423023       28.43389668322654
H            0.89072970573625      -32.62149484357502       27.10326860259946
H            3.00816836287913      -35.52015758672968       27.81487607657283
H            2.16348283048458      -36.71113820070148       26.83389058585659
H            1.44246753556759      -36.14160892635124       28.35669265151746
H           -1.40668245116962      -33.75407856269246       26.84287415292416
H           -1.80049070761748      -34.34995205039174       25.22396193449995
H           -0.53631825384163      -33.14260881582948       25.41738743761722
H           -0.91778598365561      -36.18113974725420       27.63928705680975
H           -0.01745312775277      -37.25080639578090       26.54697697405665
H           -1.56278195747390      -36.58245577640368       26.04244969418535
H            0.90982621433527      -35.90386838354858       22.17409163689739
H            3.11060310152845      -34.39922292788594       18.99033487790910
H            4.20230225010898      -32.59016832753229       20.06649034723516

          :  Hamiltonian                  GFN2-xTB          :
         :: total energy             -82.309864731003 Eh    ::
         :: gradient norm              0.000913307822 Eh/a0 ::
         :: HOMO-LUMO gap              3.108621575122 eV    ::
         :: SCC energy               -83.392609491966 Eh    ::
         :: -> dispersion             -0.061856460696 Eh    ::
         :: repulsion energy           1.082007604905 Eh    ::

    * Orbital Energies and Occupations

         #    Occupation            Energy/Eh            Energy/eV
      -------------------------------------------------------------
         1        2.0000           -0.6930950             -18.8601
       ...           ...                  ...                  ...
        63        2.0000           -0.4362957             -11.8722
        64        2.0000           -0.4348806             -11.8337
        65        2.0000           -0.4294962             -11.6872
        66        2.0000           -0.4236248             -11.5274
        67        2.0000           -0.4183683             -11.3844
        68        2.0000           -0.4122400             -11.2176
        69        2.0000           -0.4050474             -11.0219
        70        2.0000           -0.4012364             -10.9182
        71        2.0000           -0.3979602             -10.8290
        72        2.0000           -0.3950248             -10.7492
        73        2.0000           -0.3811875             -10.3726
        74        2.0000           -0.3613318              -9.8323
        75        2.0000           -0.3379294              -9.1955 (HOMO)
        76                         -0.2236897              -6.0869 (LUMO)
        77                         -0.1983836              -5.3983
        78                         -0.1697356              -4.6187
        79                         -0.1379875              -3.7548
        80                         -0.0954395              -2.5970
        81                          0.0027850               0.0758
        82                          0.0089501               0.2435
        83                          0.0113293               0.3083
        84                          0.0250541               0.6818
        85                          0.0305511               0.8313
        86                          0.0534831               1.4553
       ...                                ...                  ...
       144                          0.6903673              18.7859
      -------------------------------------------------------------
                  HL-Gap            0.1142397 Eh            3.1086 eV

     #   Z          covCN         q      C6AA      α(0)
     1   6 C        3.755    -0.117    22.803     6.809
     2   6 C        3.859     0.130    18.443     6.107
     3   8 O        1.638    -0.377    20.425     6.101
     4   6 C        3.755    -0.117    22.788     6.807
     5   6 C        3.861     0.129    18.450     6.108
     6   6 C        3.755    -0.118    22.816     6.811
     7   6 C        3.755    -0.116    22.782     6.806
     8   8 O        1.638    -0.370    20.295     6.081
     9   5 B        2.659     0.440    15.465     6.621
    10   6 C        3.822    -0.060    21.639     6.620
    11   6 C        2.891    -0.054    29.350     8.882
    12   6 C        3.259    -0.023    27.411     8.462
    13   1 H        0.925     0.024     2.671     2.556
    14   6 C        3.867    -0.016    20.813     6.487
    15   1 H        0.925     0.044     2.401     2.423
    16   6 C        2.864    -0.085    30.129     8.997
    17   5 B        2.660     0.431    15.565     6.642
    18   8 O        1.638    -0.372    20.321     6.085
    19   6 C        3.859     0.129    18.453     6.109
    20   6 C        3.755    -0.117    22.794     6.807
    21   6 C        3.755    -0.116    22.772     6.804
    22   6 C        3.859     0.129    18.452     6.109
    23   6 C        3.755    -0.116    22.779     6.805
    24   6 C        3.755    -0.117    22.801     6.808
    25   8 O        1.638    -0.373    20.338     6.087
    26   6 C        2.896    -0.027    28.664     8.778
    27   6 C        3.861    -0.015    20.796     6.485
    28   1 H        0.925     0.041     2.433     2.439
    29   6 C        3.851    -0.008    20.678     6.468
    30   6 C        2.889    -0.053    29.327     8.879
    31   6 C        3.260    -0.021    27.329     8.447
    32   1 H        0.925     0.025     2.662     2.552
    33   1 H        0.925     0.055     2.256     2.349
    34   1 H        0.925     0.041     2.441     2.443
    35   1 H        0.925     0.052     2.295     2.369
    36   1 H        0.925     0.053     2.286     2.364
    37   1 H        0.925     0.044     2.392     2.419
    38   1 H        0.925     0.043     2.405     2.425
    39   1 H        0.925     0.041     2.436     2.441
    40   1 H        0.925     0.053     2.282     2.362
    41   1 H        0.925     0.056     2.252     2.347
    42   1 H        0.925     0.044     2.401     2.423
    43   1 H        0.925     0.053     2.278     2.360
    44   1 H        0.925     0.044     2.403     2.424
    45   1 H        0.925     0.031     2.571     2.507
    46   1 H        0.925     0.054     2.272     2.357
    47   1 H        0.925     0.039     2.460     2.453
    48   1 H        0.925     0.052     2.298     2.371
    49   1 H        0.925     0.052     2.298     2.371
    50   1 H        0.925     0.044     2.403     2.424
    51   1 H        0.925     0.042     2.425     2.435
    52   1 H        0.925     0.042     2.419     2.432
    53   1 H        0.925     0.052     2.296     2.370
    54   1 H        0.925     0.044     2.400     2.423
    55   1 H        0.925     0.039     2.456     2.451
    56   1 H        0.925     0.052     2.299     2.371
    57   1 H        0.925     0.054     2.272     2.357
    58   1 H        0.925     0.037     2.488     2.467
    59   1 H        0.925     0.034     2.528     2.486
    60   1 H        0.925     0.021     2.721     2.579

Wiberg/Mayer (AO) data.
largest (>0.10) Wiberg bond orders for each atom

     #   Z sym  total        # sym  WBO       # sym  WBO       # sym  WBO
 ---------------------------------------------------------------------------
     1   6 C    3.994 --     2 C    0.997    34 H    0.984    33 H    0.982
                            35 H    0.982
     2   6 C    3.942 --     1 C    0.997     4 C    0.991     3 O    0.950
                             5 C    0.937
     3   8 O    2.226 --     9 B    1.127     2 C    0.950
     4   6 C    3.994 --     2 C    0.991    38 H    0.984    37 H    0.984
                            36 H    0.983
     5   6 C    3.941 --     6 C    0.997     7 C    0.991     8 O    0.949
                             2 C    0.937
     6   6 C    3.994 --     5 C    0.997    39 H    0.984    41 H    0.982
                            40 H    0.982
     7   6 C    3.995 --     5 C    0.991    42 H    0.984    44 H    0.984
                            43 H    0.983
     8   8 O    2.236 --     9 B    1.139     5 C    0.949
     9   5 B    3.377 --     8 O    1.139     3 O    1.127    10 C    0.995
    10   6 C    3.929 --    11 C    1.133     9 B    0.995    27 C    0.873
                            29 C    0.746
    11   6 C    3.987 --    12 C    1.737    10 C    1.133    45 H    0.964
    12   6 C    3.981 --    11 C    1.737    13 H    0.969    14 C    0.962
                            31 C    0.167
    13   1 H    0.999 --    12 C    0.969
    14   6 C    3.987 --    16 C    0.989    15 H    0.969    31 C    0.969
                            12 C    0.962
    15   1 H    0.998 --    14 C    0.969
    16   6 C    3.976 --    26 C    1.819    17 B    1.004    14 C    0.989
    17   5 B    3.376 --    25 O    1.126    18 O    1.126    16 C    1.004
    18   8 O    2.232 --    17 B    1.126    19 C    0.954
    19   6 C    3.943 --    20 C    0.997    21 C    0.990    18 O    0.954
                            22 C    0.936
    20   6 C    3.994 --    19 C    0.997    47 H    0.985    46 H    0.983
                            48 H    0.982
    21   6 C    3.994 --    19 C    0.990    51 H    0.985    50 H    0.984
                            49 H    0.983
    22   6 C    3.943 --    24 C    0.996    23 C    0.990    25 O    0.954
                            19 C    0.936
    23   6 C    3.995 --    22 C    0.990    52 H    0.984    54 H    0.984
                            53 H    0.983
    24   6 C    3.994 --    22 C    0.996    55 H    0.985    57 H    0.983
                            56 H    0.982
    25   8 O    2.231 --    17 B    1.126    22 C    0.954
    26   6 C    3.988 --    16 C    1.819    27 C    1.061    58 H    0.965
    27   6 C    3.955 --    26 C    1.061    28 H    0.969    29 C    0.925
                            10 C    0.873
    28   1 H    0.998 --    27 C    0.969
    29   6 C    3.948 --    30 C    1.147    59 H    0.972    27 C    0.925
                            10 C    0.746
    30   6 C    3.984 --    31 C    1.723    29 C    1.147    60 H    0.966
    31   6 C    3.976 --    30 C    1.723    32 H    0.970    14 C    0.969
                            12 C    0.167
    32   1 H    0.999 --    31 C    0.970
    33   1 H    0.997 --     1 C    0.982
    34   1 H    0.998 --     1 C    0.984
    35   1 H    0.997 --     1 C    0.982
    36   1 H    0.997 --     4 C    0.983
    37   1 H    0.998 --     4 C    0.984
    38   1 H    0.998 --     4 C    0.984
    39   1 H    0.998 --     6 C    0.984
    40   1 H    0.997 --     6 C    0.982
    41   1 H    0.997 --     6 C    0.982
    42   1 H    0.998 --     7 C    0.984
    43   1 H    0.997 --     7 C    0.983
    44   1 H    0.998 --     7 C    0.984
    45   1 H    0.999 --    11 C    0.964
    46   1 H    0.997 --    20 C    0.983
    47   1 H    0.998 --    20 C    0.985
    48   1 H    0.997 --    20 C    0.982
    49   1 H    0.997 --    21 C    0.983
    50   1 H    0.998 --    21 C    0.984
    51   1 H    0.998 --    21 C    0.985
    52   1 H    0.998 --    23 C    0.984
    53   1 H    0.997 --    23 C    0.983
    54   1 H    0.998 --    23 C    0.984
    55   1 H    0.998 --    24 C    0.985
    56   1 H    0.997 --    24 C    0.982
    57   1 H    0.997 --    24 C    0.983
    58   1 H    0.998 --    26 C    0.965
    59   1 H    0.998 --    29 C    0.972
    60   1 H    0.999 --    30 C    0.966
 ---------------------------------------------------------------------------

molecular dipole:
                 x           y           z       tot (Debye)
 q only:       -0.245      -0.541      -0.139
   full:       -0.201      -0.617      -0.200       1.726

           -------------------------------------------------
          | TOTAL ENERGY              -82.309864731003 Eh   |
          | GRADIENT NORM               0.000913307822 Eh/α |
          | HOMO-LUMO GAP               3.108621575122 eV   |
           -------------------------------------------------

 * finished run on 2022/07/09 at 18:33:37.832
