   * xtb version 6.5.0 (homebrew) compiled by 'nhattrup@GPGGRP-SHANNON.CHEME.CMU.EDU' on
          program call               : /opt/homebrew/bin/xtb bvl_bpin2_scan_0-2_xtb.xyz --chrg 0 --uhf 0 --opt --input xcontrol_bvl_bpin2_scan_0-2_xtb

   ID    Z sym.   atoms
    1    6 C      1, 2, 4-7, 10-12, 14, 16, 19-24, 26, 27, 29-31
    2    8 O      3, 8, 18, 25
    3    5 B      9, 17
    4    1 H      13, 15, 28, 32-60
constraining bond 12 31 to    1.5000000 Å, actual value:    1.5017155 Å
constraining bond 10 29 to    2.2778000 Å, actual value:    2.3901239 Å

          :  Hamiltonian                  GFN2-xTB          :
 * total energy  :   -82.2313960 Eh     change       -0.1661093E-08 Eh
 * total energy  :   -82.2851713 Eh     change       -0.5377534E-01 Eh
 * total energy  :   -82.3173754 Eh     change       -0.3220405E-01 Eh
 * total energy  :   -82.3179946 Eh     change       -0.6191623E-03 Eh
 * total energy  :   -82.3183453 Eh     change       -0.3507497E-03 Eh
 * total energy  :   -82.3184009 Eh     change       -0.5556269E-04 Eh
 * total energy  :   -82.3184436 Eh     change       -0.4268691E-04 Eh
 * total energy  :   -82.3184664 Eh     change       -0.2285788E-04 Eh
 * total energy  :   -82.3184822 Eh     change       -0.1578680E-04 Eh
 * total energy  :   -82.3184941 Eh     change       -0.1185215E-04 Eh
 * total energy  :   -82.3185038 Eh     change       -0.9782042E-05 Eh
 * total energy  :   -82.3185202 Eh     change       -0.1639243E-04 Eh
 * total energy  :   -82.3185363 Eh     change       -0.1606651E-04 Eh
 * total energy  :   -82.3185520 Eh     change       -0.1568094E-04 Eh
 * total energy  :   -82.3185641 Eh     change       -0.1216797E-04 Eh
 * total energy  :   -82.3185708 Eh     change       -0.6682832E-05 Eh
 * total energy  :   -82.3185755 Eh     change       -0.4697713E-05 Eh
   *** GEOMETRY OPTIMIZATION CONVERGED AFTER 17 ITERATIONS ***

 final structure:
================
60
 xtb: 6.5.0 (homebrew)
C            3.27178736040812      -38.05222532927281       16.17193836211333
C            3.60281713783563      -38.25985016710827       17.64834150243913
O            3.21328780508670      -37.10455233285828       18.38747923044857
C            2.77300598323968      -39.43217013873434       18.18742767861016
C            5.13616420920394      -38.39175581462567       17.97369909704395
C            5.61632793422135      -39.81686793214788       18.24072062269309
C            6.03219952406747      -37.75328181651441       16.90493101606123
O            5.28550025410608      -37.61184318982815       19.16002501655386
B            4.18044451898504      -36.82100763560069       19.31189459709657
C            4.02179892809713      -35.72671433127361       20.41240642529271
C            5.04333095514287      -35.47848980199499       21.25003853165308
C            5.11386157379004      -34.46314215692183       22.29511417299490
H            6.05223425328101      -34.47485080357325       22.83925658846612
C            3.91386435866996      -34.00919283523734       23.10235470119105
H            4.14597805148185      -33.72883522996398       24.12269512271671
C            2.58535350260291      -34.64205591664595       22.99394525815632
B            1.79197830667646      -34.83942187165587       24.32565194547758
O            2.27268810104792      -34.48401252709768       25.55629591191605
C            1.38391092267187      -34.98123677500476       26.55637190831886
C            1.22103999134581      -33.93789699503731       27.65909057199120
C            2.03771848311200      -36.23791623214299       27.14509810301978
C            0.07683674196335      -35.29787089165777       25.74307535545804
C           -0.93556582356768      -34.14580860900689       25.76972756592333
C           -0.62962597676245      -36.59309175897545       26.13694915172623
O            0.55027535582560      -35.40399790048934       24.40055709381961
C            2.06412661866291      -35.07221994103782       21.84017547244892
C            2.70542112878420      -35.00802818222090       20.48990832043284
H            2.02724341894231      -35.43482114109950       19.75015798155449
C            3.14032063649202      -33.65423400151342       20.05562733761468
C            3.89839281709291      -32.81763782495283       20.76104782866006
C            4.51624226690497      -33.10571066791675       22.05652351218441
H            5.08475308877984      -32.27034067484557       22.45200895324999
H            2.19276018166349      -37.97680011047473       16.06182744262436
H            3.62730317555996      -38.89410124504027       15.58414060436056
H            3.71245919003115      -37.13479155883446       15.79549911296215
H            1.71892497899133      -39.19182972671020       18.06831099653301
H            2.96664667727579      -39.57321108127258       19.24777344332574
H            2.98958076991648      -40.34905381825931       17.64763504138526
H            5.42881275118039      -40.44624855482584       17.37502149817548
H            5.12415228499268      -40.23921167941662       19.11070488472048
H            6.68552689440270      -39.79673412400711       18.43631684093901
H            5.99776242886154      -38.31497392796397       15.97625602865715
H            7.05490180777678      -37.74199818563806       17.27473078500980
H            5.72977074674779      -36.72458112508298       16.72605625220157
H            5.95308504882418      -36.04505645328254       21.09636087795384
H            2.17363802674864      -33.81120643689943       28.16758720131458
H            0.47837375351264      -34.26709768385808       28.38079063790745
H            0.92807040621320      -32.97665830624065       27.24954683952875
H            3.01397441353854      -35.96639374374925       27.54028200810519
H            2.18634712057412      -36.98241473011801       26.36694162117646
H            1.43557708030818      -36.65608986536175       27.94607616339457
H           -1.37335932450903      -34.03016997796608       26.75671189263431
H           -1.72532419647668      -34.36449758209533       25.05476458092282
H           -0.45698859927565      -33.21797862416984       25.46676234657798
H           -0.91838161105341      -36.56067777965407       27.18405768945565
H            0.00544858857925      -37.45526709824528       25.96162193648897
H           -1.52357527596046      -36.70462252328426       25.52845726462981
H            1.08602556300575      -35.53138923046739       21.87497842034946
H            2.80676801660812      -33.33828059064532       19.07475242919500
H            4.17173667377011      -31.86453280949550       20.32530022214821

          :  Hamiltonian                  GFN2-xTB          :
         :: total energy             -82.318575520659 Eh    ::
         :: gradient norm              0.000532035393 Eh/a0 ::
         :: HOMO-LUMO gap              3.355113320058 eV    ::
         :: SCC energy               -83.406023839606 Eh    ::
         :: -> dispersion             -0.061401024593 Eh    ::
         :: repulsion energy           1.086608681511 Eh    ::

    * Orbital Energies and Occupations

         #    Occupation            Energy/Eh            Energy/eV
      -------------------------------------------------------------
         1        2.0000           -0.6876894             -18.7130
       ...           ...                  ...                  ...
        63        2.0000           -0.4373180             -11.9000
        64        2.0000           -0.4318658             -11.7517
        65        2.0000           -0.4271581             -11.6236
        66        2.0000           -0.4196055             -11.4180
        67        2.0000           -0.4191321             -11.4052
        68        2.0000           -0.4126077             -11.2276
        69        2.0000           -0.4061363             -11.0515
        70        2.0000           -0.3982626             -10.8373
        71        2.0000           -0.3966536             -10.7935
        72        2.0000           -0.3964210             -10.7872
        73        2.0000           -0.3860199             -10.5041
        74        2.0000           -0.3577471              -9.7348
        75        2.0000           -0.3450744              -9.3900 (HOMO)
        76                         -0.2217762              -6.0348 (LUMO)
        77                         -0.2129314              -5.7942
        78                         -0.1878575              -5.1119
        79                         -0.1017781              -2.7695
        80                         -0.0928897              -2.5277
        81                          0.0085919               0.2338
        82                          0.0098755               0.2687
        83                          0.0161975               0.4408
        84                          0.0288935               0.7862
        85                          0.0295504               0.8041
        86                          0.0572269               1.5572
       ...                                ...                  ...
       144                          0.6836562              18.6032
      -------------------------------------------------------------
                  HL-Gap            0.1232981 Eh            3.3551 eV

     #   Z          covCN         q      C6AA      α(0)
     1   6 C        3.755    -0.117    22.795     6.808
     2   6 C        3.858     0.129    18.456     6.110
     3   8 O        1.638    -0.371    20.303     6.082
     4   6 C        3.755    -0.116    22.775     6.805
     5   6 C        3.858     0.129    18.453     6.109
     6   6 C        3.755    -0.117    22.802     6.809
     7   6 C        3.755    -0.116    22.776     6.805
     8   8 O        1.638    -0.373    20.345     6.088
     9   5 B        2.659     0.431    15.568     6.643
    10   6 C        2.932    -0.081    30.019     8.985
    11   6 C        2.896    -0.035    28.868     8.809
    12   6 C        3.862    -0.010    20.722     6.474
    13   1 H        0.925     0.030     2.592     2.518
    14   6 C        3.864    -0.021    20.902     6.502
    15   1 H        0.925     0.041     2.435     2.440
    16   6 C        2.863    -0.085    30.114     8.995
    17   5 B        2.663     0.432    15.544     6.635
    18   8 O        1.638    -0.374    20.354     6.090
    19   6 C        3.860     0.129    18.453     6.109
    20   6 C        3.755    -0.117    22.800     6.808
    21   6 C        3.755    -0.116    22.779     6.805
    22   6 C        3.860     0.129    18.454     6.109
    23   6 C        3.755    -0.116    22.785     6.806
    24   6 C        3.755    -0.118    22.806     6.809
    25   8 O        1.638    -0.371    20.296     6.081
    26   6 C        2.900    -0.030    28.740     8.790
    27   6 C        3.866    -0.014    20.791     6.484
    28   1 H        0.924     0.045     2.385     2.415
    29   6 C        2.958    -0.029    28.733     8.792
    30   6 C        2.890    -0.044    29.084     8.842
    31   6 C        3.863    -0.009    20.696     6.469
    32   1 H        0.925     0.029     2.598     2.521
    33   1 H        0.925     0.054     2.266     2.354
    34   1 H        0.925     0.039     2.458     2.452
    35   1 H        0.925     0.051     2.302     2.373
    36   1 H        0.925     0.052     2.292     2.367
    37   1 H        0.925     0.043     2.403     2.424
    38   1 H        0.925     0.042     2.423     2.434
    39   1 H        0.925     0.040     2.450     2.448
    40   1 H        0.925     0.052     2.298     2.370
    41   1 H        0.925     0.054     2.269     2.356
    42   1 H        0.925     0.043     2.414     2.430
    43   1 H        0.925     0.052     2.295     2.369
    44   1 H        0.925     0.044     2.402     2.424
    45   1 H        0.925     0.035     2.519     2.482
    46   1 H        0.925     0.054     2.269     2.355
    47   1 H        0.925     0.040     2.451     2.448
    48   1 H        0.925     0.052     2.293     2.368
    49   1 H        0.925     0.052     2.295     2.369
    50   1 H        0.925     0.044     2.401     2.423
    51   1 H        0.925     0.043     2.415     2.430
    52   1 H        0.925     0.043     2.413     2.429
    53   1 H        0.925     0.053     2.286     2.365
    54   1 H        0.925     0.044     2.398     2.421
    55   1 H        0.925     0.040     2.450     2.448
    56   1 H        0.925     0.052     2.294     2.369
    57   1 H        0.925     0.055     2.262     2.352
    58   1 H        0.926     0.036     2.507     2.476
    59   1 H        0.925     0.024     2.667     2.554
    60   1 H        0.925     0.023     2.690     2.565

Wiberg/Mayer (AO) data.
largest (>0.10) Wiberg bond orders for each atom

     #   Z sym  total        # sym  WBO       # sym  WBO       # sym  WBO
 ---------------------------------------------------------------------------
     1   6 C    3.994 --     2 C    0.996    34 H    0.985    33 H    0.983
                            35 H    0.982
     2   6 C    3.943 --     1 C    0.996     4 C    0.991     3 O    0.954
                             5 C    0.936
     3   8 O    2.233 --     9 B    1.127     2 C    0.954
     4   6 C    3.994 --     2 C    0.991    38 H    0.984    37 H    0.984
                            36 H    0.983
     5   6 C    3.942 --     6 C    0.996     7 C    0.991     8 O    0.953
                             2 C    0.936
     6   6 C    3.994 --     5 C    0.996    39 H    0.984    41 H    0.983
                            40 H    0.982
     7   6 C    3.995 --     5 C    0.991    42 H    0.984    44 H    0.984
                            43 H    0.983
     8   8 O    2.231 --     9 B    1.128     5 C    0.953
     9   5 B    3.377 --     8 O    1.128     3 O    1.127    10 C    1.002
    10   6 C    3.974 --    11 C    1.771     9 B    1.002    27 C    0.959
    11   6 C    3.989 --    10 C    1.771    12 C    1.098    45 H    0.965
    12   6 C    3.951 --    11 C    1.098    13 H    0.971    14 C    0.891
                            31 C    0.871
    13   1 H    0.999 --    12 C    0.971
    14   6 C    3.941 --    16 C    1.050    15 H    0.969    31 C    0.910
                            12 C    0.891
    15   1 H    0.998 --    14 C    0.969
    16   6 C    3.979 --    26 C    1.815    14 C    1.050    17 B    0.996
    17   5 B    3.374 --    25 O    1.133    18 O    1.127    16 C    0.996
    18   8 O    2.232 --    17 B    1.127    19 C    0.952
    19   6 C    3.943 --    20 C    0.997    21 C    0.991    18 O    0.952
                            22 C    0.937
    20   6 C    3.994 --    19 C    0.997    47 H    0.984    46 H    0.983
                            48 H    0.982
    21   6 C    3.994 --    19 C    0.991    51 H    0.984    50 H    0.984
                            49 H    0.983
    22   6 C    3.942 --    24 C    0.996    23 C    0.991    25 O    0.952
                            19 C    0.937
    23   6 C    3.995 --    22 C    0.991    52 H    0.984    54 H    0.984
                            53 H    0.983
    24   6 C    3.994 --    22 C    0.996    55 H    0.985    57 H    0.983
                            56 H    0.982
    25   8 O    2.236 --    17 B    1.133    22 C    0.952
    26   6 C    3.987 --    16 C    1.815    27 C    0.997    58 H    0.968
    27   6 C    3.994 --    26 C    0.997    29 C    0.982    28 H    0.970
                            10 C    0.959
    28   1 H    0.998 --    27 C    0.970
    29   6 C    3.988 --    30 C    1.846    27 C    0.982    59 H    0.968
    30   6 C    3.989 --    29 C    1.846    31 C    1.078    60 H    0.967
    31   6 C    3.947 --    30 C    1.078    32 H    0.971    14 C    0.910
                            12 C    0.871
    32   1 H    0.999 --    31 C    0.971
    33   1 H    0.997 --     1 C    0.983
    34   1 H    0.998 --     1 C    0.985
    35   1 H    0.997 --     1 C    0.982
    36   1 H    0.997 --     4 C    0.983
    37   1 H    0.998 --     4 C    0.984
    38   1 H    0.998 --     4 C    0.984
    39   1 H    0.998 --     6 C    0.984
    40   1 H    0.997 --     6 C    0.982
    41   1 H    0.997 --     6 C    0.983
    42   1 H    0.998 --     7 C    0.984
    43   1 H    0.997 --     7 C    0.983
    44   1 H    0.998 --     7 C    0.984
    45   1 H    0.999 --    11 C    0.965
    46   1 H    0.997 --    20 C    0.983
    47   1 H    0.998 --    20 C    0.984
    48   1 H    0.997 --    20 C    0.982
    49   1 H    0.997 --    21 C    0.983
    50   1 H    0.998 --    21 C    0.984
    51   1 H    0.998 --    21 C    0.984
    52   1 H    0.998 --    23 C    0.984
    53   1 H    0.997 --    23 C    0.983
    54   1 H    0.998 --    23 C    0.984
    55   1 H    0.998 --    24 C    0.985
    56   1 H    0.997 --    24 C    0.982
    57   1 H    0.997 --    24 C    0.983
    58   1 H    0.999 --    26 C    0.968
    59   1 H    0.999 --    29 C    0.968
    60   1 H    0.999 --    30 C    0.967
 ---------------------------------------------------------------------------

molecular dipole:
                 x           y           z       tot (Debye)
 q only:       -0.226      -0.556       0.194
   full:       -0.185      -0.672       0.210       1.850

           -------------------------------------------------
          | TOTAL ENERGY              -82.318575520659 Eh   |
          | GRADIENT NORM               0.000532035393 Eh/α |
          | HOMO-LUMO GAP               3.355113320058 eV   |
           -------------------------------------------------

 * finished run on 2022/07/09 at 18:32:55.236
