   * xtb version 6.5.0 (homebrew) compiled by 'nhattrup@GPGGRP-SHANNON.CHEME.CMU.EDU' on
          program call               : /opt/homebrew/bin/xtb bvl_bpin2_scan_0-7_xtb.xyz --chrg 0 --uhf 0 --opt --input xcontrol_bvl_bpin2_scan_0-7_xtb

   ID    Z sym.   atoms
    1    6 C      1, 2, 4-7, 10-12, 14, 16, 19-24, 26, 27, 29-31
    2    8 O      3, 8, 18, 25
    3    5 B      9, 17
    4    1 H      13, 15, 28, 32-60
constraining bond 12 31 to    1.5000000 Å, actual value:    1.5052865 Å
constraining bond 10 29 to    1.7222000 Å, actual value:    1.8367963 Å

          :  Hamiltonian                  GFN2-xTB          :
 * total energy  :   -82.2015550 Eh     change       -0.1065970E-08 Eh
 * total energy  :   -82.2612637 Eh     change       -0.5970869E-01 Eh
 * total energy  :   -82.2897911 Eh     change       -0.2852749E-01 Eh
 * total energy  :   -82.2900893 Eh     change       -0.2981795E-03 Eh
 * total energy  :   -82.2901716 Eh     change       -0.8223729E-04 Eh
 * total energy  :   -82.2901834 Eh     change       -0.1181744E-04 Eh
 * total energy  :   -82.2901930 Eh     change       -0.9599340E-05 Eh
 * total energy  :   -82.2902015 Eh     change       -0.8536077E-05 Eh
 * total energy  :   -82.2902085 Eh     change       -0.6983751E-05 Eh
 * total energy  :   -82.2902151 Eh     change       -0.6617730E-05 Eh
 * total energy  :   -82.2902528 Eh     change       -0.1573737E-04 Eh
 * total energy  :   -82.2902704 Eh     change       -0.1751738E-04 Eh
 * total energy  :   -82.2902868 Eh     change       -0.1639844E-04 Eh
 * total energy  :   -82.2903029 Eh     change       -0.1615668E-04 Eh
 * total energy  :   -82.2903182 Eh     change       -0.1528816E-04 Eh
 * total energy  :   -82.2903327 Eh     change       -0.1450344E-04 Eh
 * total energy  :   -82.2903445 Eh     change       -0.1177469E-04 Eh
 * total energy  :   -82.2903524 Eh     change       -0.7930732E-05 Eh
 * total energy  :   -82.2903566 Eh     change       -0.4163629E-05 Eh
   *** GEOMETRY OPTIMIZATION CONVERGED AFTER 21 ITERATIONS ***

 final structure:
================
60
 xtb: 6.5.0 (homebrew)
C            3.48800198993995      -37.73494534869388       15.89905542368869
C            3.72437967822653      -38.14066926038596       17.35190948553913
O            3.25106699592595      -37.10786934183727       18.21755733137036
C            2.89759216713049      -39.39389664086012       17.66494969722504
C            5.23507970556092      -38.28366085600570       17.76334515554962
C            5.74560364716751      -39.71967649527801       17.85087843475035
C            6.17840783249687      -37.46810820429107       16.87057503607390
O            5.27501677941757      -37.68467712533769       19.06043441773236
B            4.14281135965133      -36.94689674328691       19.24025673901567
C            3.89366758730793      -35.99691506213440       20.46483464675400
C            4.91812862942246      -35.87433949117396       21.40067138620123
C            4.97227958091560      -34.83430120781741       22.38386588940281
H            5.91768486228520      -34.79864398367758       22.92009014018318
C            3.80156149640411      -34.27267684321581       23.14228508611097
H            4.05807929751856      -33.87363074549845       24.11563880097431
C            2.45915902886687      -34.90056934062552       23.14523515263778
B            1.69912612583030      -34.91113284989282       24.50782095269410
O            2.20148940211292      -34.37804085543051       25.66394195437148
C            1.33383483588381      -34.72262568134369       26.74295065266640
C            1.18603978569131      -33.52738034554205       27.68167952522898
C            2.00400630697170      -35.87628167712666       27.50037965789831
C            0.01339730867265      -35.15896846472050       26.01064755088355
C           -1.00317742800373      -34.01702716050491       25.88486584884860
C           -0.67982998967547      -36.38191766629217       26.60713031018133
O            0.46158843484570      -35.46290392053807       24.69019192879538
C            1.90496948919604      -35.46360143187820       22.06908804827936
C            2.46775964514461      -35.57274620878558       20.70903384430992
H            1.78285343964587      -36.06833111538021       20.02829405432792
C            3.21357953849318      -34.46650400007884       20.05048269189838
C            3.82997198190176      -33.39757594068357       20.67407269788325
C            4.38447289695138      -33.50357869722133       21.99407574871501
H            4.96277864067757      -32.63048862928074       22.28749527923548
H            2.41735055220180      -37.67829174774082       15.71887191086673
H            3.91865056930849      -38.47376850463592       15.22869706300136
H            3.91652678998707      -36.76056449071714       15.68766016445727
H            1.84619044494534      -39.16030512753198       17.51312785681390
H            3.03062094537117      -39.68216808807520       18.70467550802013
H            3.17363490835733      -40.21880847078713       17.01522823858455
H            5.64086443618065      -40.21488940398699       16.88935220920058
H            5.20982423772963      -40.28101123522716       18.60928840132260
H            6.79723679791006      -39.70270836419977       18.12566246899483
H            6.23140083727939      -37.88566235734033       15.86974225568548
H            7.17120165658639      -37.48369482499538       17.31420644954787
H            5.84993886189664      -36.43297110713267       16.82174437482918
H            5.85929753673784      -36.33684483793787       21.13739172768507
H            2.14788583723545      -33.32274097385431       28.14539995546879
H            0.46061873773324      -33.74876497981240       28.45992659203868
H            0.87797118698596      -32.63872606184085       27.14045972660170
H            2.98605759179337      -35.54688674645273       27.83213622336776
H            2.14177127121247      -36.72849502445501       26.83961608989360
H            1.41869448311465      -36.17114607527806       28.36613940909192
H           -1.42273579077065      -33.75574333857020       26.85176346078050
H           -1.80540181958501      -34.34093058160827       25.22585888751389
H           -0.53400415714579      -33.14442098292246       25.43747797637515
H           -0.94585770782619      -36.19512152952844       27.64408133532881
H           -0.04528218235319      -37.26014137278039       26.54733425699749
H           -1.58640718748576      -36.58281358611326       26.04176854160359
H            0.92423526544695      -35.90397736506139       22.18612454777825
H            3.01998848120003      -34.36426994410399       18.98838386137604
H            4.24201636336811      -32.62061154248532       20.04391693734077

          :  Hamiltonian                  GFN2-xTB          :
         :: total energy             -82.290356572998 Eh    ::
         :: gradient norm              0.000286183078 Eh/a0 ::
         :: HOMO-LUMO gap              2.239352691004 eV    ::
         :: SCC energy               -83.366930691973 Eh    ::
         :: -> dispersion             -0.060962527510 Eh    ::
         :: repulsion energy           1.075623100594 Eh    ::

    * Orbital Energies and Occupations

         #    Occupation            Energy/Eh            Energy/eV
      -------------------------------------------------------------
         1        2.0000           -0.6935302             -18.8719
       ...           ...                  ...                  ...
        63        2.0000           -0.4373237             -11.9002
        64        2.0000           -0.4342947             -11.8178
        65        2.0000           -0.4275700             -11.6348
        66        2.0000           -0.4237692             -11.5313
        67        2.0000           -0.4184388             -11.3863
        68        2.0000           -0.4133910             -11.2489
        69        2.0000           -0.4085960             -11.1185
        70        2.0000           -0.4018826             -10.9358
        71        2.0000           -0.4000564             -10.8861
        72        2.0000           -0.3953251             -10.7573
        73        2.0000           -0.3805293             -10.3547
        74        2.0000           -0.3763657             -10.2414
        75        2.0000           -0.3109899              -8.4625 (HOMO)
        76                         -0.2286952              -6.2231 (LUMO)
        77                         -0.2202914              -5.9944
        78                         -0.1536565              -4.1812
        79                         -0.1012915              -2.7563
        80                         -0.0440830              -1.1996
        81                          0.0016268               0.0443
        82                          0.0109604               0.2982
        83                          0.0185659               0.5052
        84                          0.0244017               0.6640
        85                          0.0305557               0.8315
        86                          0.0536201               1.4591
       ...                                ...                  ...
       144                          0.6991379              19.0245
      -------------------------------------------------------------
                  HL-Gap            0.0822947 Eh            2.2394 eV

     #   Z          covCN         q      C6AA      α(0)
     1   6 C        3.755    -0.117    22.802     6.809
     2   6 C        3.859     0.129    18.449     6.108
     3   8 O        1.638    -0.374    20.358     6.090
     4   6 C        3.755    -0.117    22.788     6.807
     5   6 C        3.860     0.129    18.452     6.109
     6   6 C        3.755    -0.118    22.820     6.811
     7   6 C        3.755    -0.116    22.782     6.806
     8   8 O        1.638    -0.370    20.277     6.078
     9   5 B        2.659     0.439    15.479     6.624
    10   6 C        3.772    -0.052    21.544     6.614
    11   6 C        2.896    -0.069    29.729     8.940
    12   6 C        3.866     0.001    20.524     6.442
    13   1 H        0.925     0.028     2.619     2.531
    14   6 C        3.865    -0.030    21.074     6.528
    15   1 H        0.925     0.040     2.450     2.447
    16   6 C        2.863    -0.083    30.066     8.988
    17   5 B        2.663     0.432    15.549     6.637
    18   8 O        1.638    -0.373    20.344     6.088
    19   6 C        3.860     0.129    18.453     6.109
    20   6 C        3.755    -0.117    22.798     6.808
    21   6 C        3.755    -0.116    22.777     6.805
    22   6 C        3.860     0.129    18.454     6.109
    23   6 C        3.755    -0.116    22.783     6.806
    24   6 C        3.755    -0.117    22.803     6.809
    25   8 O        1.638    -0.372    20.314     6.084
    26   6 C        2.896    -0.030    28.739     8.790
    27   6 C        3.863    -0.020    20.891     6.500
    28   1 H        0.925     0.041     2.434     2.440
    29   6 C        3.801    -0.001    20.597     6.462
    30   6 C        2.891    -0.077    29.929     8.969
    31   6 C        3.869     0.002    20.504     6.439
    32   1 H        0.925     0.028     2.619     2.531
    33   1 H        0.925     0.055     2.254     2.348
    34   1 H        0.925     0.041     2.439     2.442
    35   1 H        0.925     0.052     2.295     2.369
    36   1 H        0.925     0.053     2.281     2.362
    37   1 H        0.925     0.044     2.391     2.418
    38   1 H        0.925     0.043     2.403     2.424
    39   1 H        0.925     0.041     2.432     2.439
    40   1 H        0.925     0.053     2.280     2.361
    41   1 H        0.925     0.056     2.249     2.345
    42   1 H        0.925     0.044     2.397     2.421
    43   1 H        0.925     0.054     2.276     2.359
    44   1 H        0.925     0.044     2.401     2.423
    45   1 H        0.925     0.028     2.621     2.531
    46   1 H        0.925     0.054     2.271     2.357
    47   1 H        0.925     0.039     2.457     2.451
    48   1 H        0.925     0.052     2.295     2.369
    49   1 H        0.925     0.052     2.297     2.370
    50   1 H        0.925     0.044     2.399     2.422
    51   1 H        0.925     0.042     2.422     2.434
    52   1 H        0.925     0.042     2.418     2.432
    53   1 H        0.925     0.052     2.292     2.368
    54   1 H        0.925     0.044     2.396     2.421
    55   1 H        0.925     0.040     2.454     2.450
    56   1 H        0.925     0.052     2.295     2.369
    57   1 H        0.925     0.054     2.268     2.355
    58   1 H        0.925     0.037     2.492     2.469
    59   1 H        0.925     0.032     2.557     2.501
    60   1 H        0.925     0.015     2.808     2.620

Wiberg/Mayer (AO) data.
largest (>0.10) Wiberg bond orders for each atom

     #   Z sym  total        # sym  WBO       # sym  WBO       # sym  WBO
 ---------------------------------------------------------------------------
     1   6 C    3.994 --     2 C    0.997    34 H    0.984    33 H    0.982
                            35 H    0.982
     2   6 C    3.942 --     1 C    0.997     4 C    0.991     3 O    0.950
                             5 C    0.937
     3   8 O    2.232 --     9 B    1.133     2 C    0.950
     4   6 C    3.994 --     2 C    0.991    38 H    0.984    37 H    0.984
                            36 H    0.983
     5   6 C    3.940 --     6 C    0.997     7 C    0.991     8 O    0.949
                             2 C    0.937
     6   6 C    3.994 --     5 C    0.997    39 H    0.984    41 H    0.982
                            40 H    0.982
     7   6 C    3.995 --     5 C    0.991    42 H    0.984    44 H    0.984
                            43 H    0.983
     8   8 O    2.240 --     9 B    1.142     5 C    0.949
     9   5 B    3.376 --     8 O    1.142     3 O    1.133    10 C    0.987
    10   6 C    3.941 --    11 C    1.422     9 B    0.987    27 C    0.887
                            29 C    0.484
    11   6 C    3.974 --    10 C    1.422    12 C    1.206    45 H    0.966
                            30 C    0.239
    12   6 C    3.957 --    11 C    1.206    13 H    0.969    14 C    0.894
                            31 C    0.775
    13   1 H    0.999 --    12 C    0.969
    14   6 C    3.929 --    16 C    1.028    15 H    0.969    31 C    0.904
                            12 C    0.894
    15   1 H    0.998 --    14 C    0.969
    16   6 C    3.979 --    26 C    1.817    14 C    1.028    17 B    0.999
    17   5 B    3.376 --    25 O    1.129    18 O    1.126    16 C    0.999
    18   8 O    2.231 --    17 B    1.126    19 C    0.953
    19   6 C    3.943 --    20 C    0.997    21 C    0.990    18 O    0.953
                            22 C    0.937
    20   6 C    3.994 --    19 C    0.997    47 H    0.985    46 H    0.983
                            48 H    0.982
    21   6 C    3.994 --    19 C    0.990    51 H    0.985    50 H    0.984
                            49 H    0.983
    22   6 C    3.943 --    24 C    0.996    23 C    0.991    25 O    0.953
                            19 C    0.937
    23   6 C    3.995 --    22 C    0.991    52 H    0.985    54 H    0.984
                            53 H    0.983
    24   6 C    3.994 --    22 C    0.996    55 H    0.985    57 H    0.983
                            56 H    0.982
    25   8 O    2.233 --    17 B    1.129    22 C    0.953
    26   6 C    3.988 --    16 C    1.817    27 C    1.035    58 H    0.966
    27   6 C    3.958 --    26 C    1.035    28 H    0.968    29 C    0.924
                            10 C    0.887
    28   1 H    0.998 --    27 C    0.968
    29   6 C    3.958 --    30 C    1.452    59 H    0.970    27 C    0.924
                            10 C    0.484
    30   6 C    3.963 --    29 C    1.452    31 C    1.191    60 H    0.968
                            11 C    0.239
    31   6 C    3.955 --    30 C    1.191    32 H    0.970    14 C    0.904
                            12 C    0.775
    32   1 H    0.999 --    31 C    0.970
    33   1 H    0.997 --     1 C    0.982
    34   1 H    0.998 --     1 C    0.984
    35   1 H    0.997 --     1 C    0.982
    36   1 H    0.997 --     4 C    0.983
    37   1 H    0.998 --     4 C    0.984
    38   1 H    0.998 --     4 C    0.984
    39   1 H    0.998 --     6 C    0.984
    40   1 H    0.997 --     6 C    0.982
    41   1 H    0.997 --     6 C    0.982
    42   1 H    0.998 --     7 C    0.984
    43   1 H    0.997 --     7 C    0.983
    44   1 H    0.998 --     7 C    0.984
    45   1 H    0.999 --    11 C    0.966
    46   1 H    0.997 --    20 C    0.983
    47   1 H    0.998 --    20 C    0.985
    48   1 H    0.997 --    20 C    0.982
    49   1 H    0.997 --    21 C    0.983
    50   1 H    0.998 --    21 C    0.984
    51   1 H    0.998 --    21 C    0.985
    52   1 H    0.998 --    23 C    0.985
    53   1 H    0.997 --    23 C    0.983
    54   1 H    0.998 --    23 C    0.984
    55   1 H    0.998 --    24 C    0.985
    56   1 H    0.997 --    24 C    0.982
    57   1 H    0.997 --    24 C    0.983
    58   1 H    0.999 --    26 C    0.966
    59   1 H    0.998 --    29 C    0.970
    60   1 H    1.000 --    30 C    0.968
 ---------------------------------------------------------------------------

molecular dipole:
                 x           y           z       tot (Debye)
 q only:       -0.193      -0.569      -0.102
   full:       -0.078      -0.636      -0.182       1.692

           -------------------------------------------------
          | TOTAL ENERGY              -82.290356572998 Eh   |
          | GRADIENT NORM               0.000286183078 Eh/α |
          | HOMO-LUMO GAP               2.239352691004 eV   |
           -------------------------------------------------

 * finished run on 2022/07/09 at 18:33:14.967
