   * xtb version 6.5.0 (homebrew) compiled by 'nhattrup@GPGGRP-SHANNON.CHEME.CMU.EDU' on
          program call               : /opt/homebrew/bin/xtb bvl_bpin2_scan_2-4_xtb.xyz --chrg 0 --uhf 0 --opt --input xcontrol_bvl_bpin2_scan_2-4_xtb

   ID    Z sym.   atoms
    1    6 C      1, 2, 4-7, 10-12, 14, 16, 19-24, 26, 27, 29-31
    2    8 O      3, 8, 18, 25
    3    5 B      9, 17
    4    1 H      13, 15, 28, 32-60
constraining bond 12 31 to    1.7222000 Å, actual value:    1.6090046 Å
constraining bond 10 29 to    2.0556000 Å, actual value:    2.1692506 Å

          :  Hamiltonian                  GFN2-xTB          :
 * total energy  :   -82.1306033 Eh     change       -0.1278110E-08 Eh
 * total energy  :   -82.2587406 Eh     change       -0.1281373E+00 Eh
 * total energy  :   -82.3036247 Eh     change       -0.4488414E-01 Eh
 * total energy  :   -82.3043264 Eh     change       -0.7016730E-03 Eh
 * total energy  :   -82.2995888 Eh     change        0.4737620E-02 Eh
 * total energy  :   -82.3049198 Eh     change       -0.5331070E-02 Eh
 * total energy  :   -82.3051071 Eh     change       -0.1872213E-03 Eh
 * total energy  :   -82.3052410 Eh     change       -0.1339567E-03 Eh
 * total energy  :   -82.3055428 Eh     change       -0.3017737E-03 Eh
 * total energy  :   -82.3056077 Eh     change       -0.6490607E-04 Eh
 * total energy  :   -82.3061672 Eh     change       -0.9893713E-05 Eh
 * total energy  :   -82.3061754 Eh     change       -0.8218290E-05 Eh
 * total energy  :   -82.3061838 Eh     change       -0.8329069E-05 Eh
 * total energy  :   -82.3061931 Eh     change       -0.9329444E-05 Eh
 * total energy  :   -82.3062036 Eh     change       -0.1055279E-04 Eh
 * total energy  :   -82.3062137 Eh     change       -0.1009127E-04 Eh
 * total energy  :   -82.3062227 Eh     change       -0.8934759E-05 Eh
 * total energy  :   -82.3062309 Eh     change       -0.8261343E-05 Eh
 * total energy  :   -82.3062331 Eh     change       -0.2143963E-05 Eh
   *** GEOMETRY OPTIMIZATION CONVERGED AFTER 44 ITERATIONS ***

 final structure:
================
60
 xtb: 6.5.0 (homebrew)
C            3.42645800395621      -37.81300540935148       15.96947226089935
C            3.69536014539322      -38.19282554593225       17.42403259295943
O            3.23409591846382      -37.14998100547296       18.28097971472260
C            2.88242624643825      -39.44613366957291       17.77296942225571
C            5.21556354049857      -38.32257299335986       17.80542014782721
C            5.73276114329132      -39.75576855702965       17.90947626308359
C            6.13688706464185      -37.52416382137141       16.87435402199266
O            5.28304327616063      -37.69996039413544       19.08793523199782
B            4.14770526808073      -36.96326648926514       19.28277107893566
C            3.91684480067953      -36.02329152544878       20.50340020386601
C            4.94444522305696      -35.81545080277322       21.37763489445731
C            5.00202792944859      -34.86729524645983       22.43442459926752
H            5.94774480783909      -34.79368381795479       22.95386987127381
C            3.83384387474139      -34.21296271245765       23.11948337322981
H            4.07364405462152      -33.84987798020184       24.11434827191382
C            2.47727395091572      -34.82016900859207       23.09970423145990
B            1.70767642830465      -34.87323337043401       24.45680499022304
O            2.21149416304708      -34.38624888472611       25.63209508840192
C            1.34457241366787      -34.77146139255119       26.69802182101821
C            1.19502974679376      -33.61112175928211       27.67930605375088
C            2.01846258948822      -35.94988282234814       27.41259302538943
C            0.02400565202938      -35.18349032228127       25.95091316700725
C           -1.00115836617866      -34.04475686860492       25.87857199272809
C           -0.65933532253272      -36.43642707959164       26.49434410028808
O            0.46954710113454      -35.42742927780352       24.61683770548958
C            1.93799979256595      -35.33858297501637       21.99536027669766
C            2.55513593887017      -35.40197290568194       20.64364664861867
H            1.86435207656083      -35.87088599874130       19.94395794740414
C            3.14166080404988      -34.17212199306387       20.04896098094483
C            3.86871743210070      -33.23138403925727       20.69228206138465
C            4.35570889916410      -33.32661521365571       22.02912950503351
H            4.99685074632616      -32.51912516595565       22.35608686817434
H            2.35190737259003      -37.75813643720189       15.81320125468280
H            3.84085351887435      -38.56412172917634       15.30249079078326
H            3.85050867914442      -36.84299004771727       15.73110846496042
H            1.82725826413169      -39.22341728276268       17.63130872228263
H            3.03197735523166      -39.71226253009934       18.81634280984557
H            3.15556092129612      -40.28215301521766       17.13625750817105
H            5.60903758462859      -40.27061660741912       16.96056850276452
H            5.21536076506508      -40.30324516820730       18.69048868206196
H            6.79009695480667      -39.73040588732832       18.16102920709105
H            6.16952045810453      -37.96338895948892       15.88182885466736
H            7.13914624454209      -37.52755662520388       17.29665038336576
H            5.80432323973956      -36.49118166761174       16.81050545069261
H            5.88216148330789      -36.29796374294083       21.13158303146595
H            2.15607111063738      -33.42305291025660       28.15163638801371
H            0.46864341076555      -33.86061707697819       28.44797762328187
H            0.88744791287726      -32.70357842420355       27.17010835636604
H            2.99819319665714      -35.62869399409093       27.75898882540501
H            2.16208379535701      -36.77567293729801       26.72030075526310
H            1.43277130416679      -36.28025113915152       28.26509930729681
H           -1.41785173498817      -33.82843741419157       26.85771690755787
H           -1.80434662363823      -34.34628985791651       25.21025807670123
H           -0.54119697556401      -33.14994607010129       25.46704604574443
H           -0.93153262045750      -36.29462770926608       27.53676469812050
H           -0.01632885682403      -37.30551956235166       26.40158705396496
H           -1.56146155716789      -36.62257439567828       25.91697681568509
H            0.95033516576052      -35.77185207806204       22.07488256143320
H            2.95572950006517      -34.03657488554100       18.99172715183900
H            4.27660478727255      -32.41667279618994       20.10624735778786

          :  Hamiltonian                  GFN2-xTB          :
         :: total energy             -82.306233075530 Eh    ::
         :: gradient norm              0.000668682769 Eh/a0 ::
         :: HOMO-LUMO gap              3.160977151669 eV    ::
         :: SCC energy               -83.385263466359 Eh    ::
         :: -> dispersion             -0.061631040616 Eh    ::
         :: repulsion energy           1.078261128102 Eh    ::

    * Orbital Energies and Occupations

         #    Occupation            Energy/Eh            Energy/eV
      -------------------------------------------------------------
         1        2.0000           -0.6877166             -18.7137
       ...           ...                  ...                  ...
        63        2.0000           -0.4356995             -11.8560
        64        2.0000           -0.4323579             -11.7651
        65        2.0000           -0.4306774             -11.7193
        66        2.0000           -0.4204083             -11.4399
        67        2.0000           -0.4195854             -11.4175
        68        2.0000           -0.4143957             -11.2763
        69        2.0000           -0.4072191             -11.0810
        70        2.0000           -0.3974695             -10.8157
        71        2.0000           -0.3970836             -10.8052
        72        2.0000           -0.3946772             -10.7397
        73        2.0000           -0.3837927             -10.4435
        74        2.0000           -0.3565465              -9.7021
        75        2.0000           -0.3408590              -9.2752 (HOMO)
        76                         -0.2246953              -6.1143 (LUMO)
        77                         -0.2091328              -5.6908
        78                         -0.1834859              -4.9929
        79                         -0.1053346              -2.8663
        80                         -0.0939082              -2.5554
        81                         -0.0347627              -0.9459
        82                          0.0087569               0.2383
        83                          0.0097879               0.2663
        84                          0.0286094               0.7785
        85                          0.0291126               0.7922
        86                          0.0570169               1.5515
       ...                                ...                  ...
       144                          0.6931477              18.8615
      -------------------------------------------------------------
                  HL-Gap            0.1161638 Eh            3.1610 eV

     #   Z          covCN         q      C6AA      α(0)
     1   6 C        3.755    -0.117    22.792     6.807
     2   6 C        3.858     0.129    18.451     6.109
     3   8 O        1.638    -0.374    20.358     6.090
     4   6 C        3.755    -0.116    22.775     6.805
     5   6 C        3.858     0.129    18.450     6.109
     6   6 C        3.755    -0.117    22.804     6.809
     7   6 C        3.755    -0.116    22.770     6.804
     8   8 O        1.638    -0.374    20.352     6.090
     9   5 B        2.659     0.433    15.549     6.639
    10   6 C        3.236    -0.075    28.930     8.726
    11   6 C        2.893    -0.046    29.149     8.852
    12   6 C        3.801    -0.015    20.849     6.501
    13   1 H        0.925     0.031     2.575     2.509
    14   6 C        3.864    -0.014    20.780     6.482
    15   1 H        0.925     0.044     2.390     2.418
    16   6 C        2.863    -0.084    30.092     8.992
    17   5 B        2.661     0.432    15.556     6.639
    18   8 O        1.638    -0.373    20.341     6.088
    19   6 C        3.859     0.129    18.455     6.109
    20   6 C        3.755    -0.117    22.799     6.808
    21   6 C        3.755    -0.116    22.779     6.805
    22   6 C        3.860     0.129    18.456     6.110
    23   6 C        3.755    -0.116    22.786     6.806
    24   6 C        3.755    -0.118    22.807     6.810
    25   8 O        1.638    -0.370    20.281     6.079
    26   6 C        2.897    -0.026    28.661     8.778
    27   6 C        3.865    -0.014    20.782     6.483
    28   1 H        0.925     0.044     2.395     2.420
    29   6 C        3.263    -0.022    27.310     8.438
    30   6 C        2.889    -0.054    29.333     8.879
    31   6 C        3.803    -0.013    20.798     6.493
    32   1 H        0.925     0.031     2.574     2.509
    33   1 H        0.925     0.054     2.268     2.355
    34   1 H        0.925     0.039     2.457     2.451
    35   1 H        0.925     0.051     2.305     2.374
    36   1 H        0.925     0.052     2.295     2.369
    37   1 H        0.925     0.044     2.401     2.423
    38   1 H        0.925     0.042     2.421     2.433
    39   1 H        0.925     0.040     2.451     2.448
    40   1 H        0.925     0.052     2.295     2.369
    41   1 H        0.925     0.054     2.268     2.355
    42   1 H        0.925     0.042     2.416     2.431
    43   1 H        0.925     0.052     2.295     2.369
    44   1 H        0.925     0.043     2.407     2.426
    45   1 H        0.925     0.033     2.550     2.497
    46   1 H        0.925     0.054     2.270     2.356
    47   1 H        0.925     0.040     2.451     2.448
    48   1 H        0.925     0.052     2.294     2.369
    49   1 H        0.925     0.052     2.296     2.369
    50   1 H        0.925     0.044     2.399     2.422
    51   1 H        0.925     0.042     2.416     2.431
    52   1 H        0.925     0.043     2.413     2.429
    53   1 H        0.925     0.053     2.287     2.365
    54   1 H        0.925     0.044     2.396     2.421
    55   1 H        0.925     0.040     2.450     2.448
    56   1 H        0.925     0.052     2.294     2.368
    57   1 H        0.925     0.055     2.262     2.352
    58   1 H        0.925     0.037     2.486     2.466
    59   1 H        0.925     0.028     2.619     2.531
    60   1 H        0.925     0.021     2.724     2.581

Wiberg/Mayer (AO) data.
largest (>0.10) Wiberg bond orders for each atom

     #   Z sym  total        # sym  WBO       # sym  WBO       # sym  WBO
 ---------------------------------------------------------------------------
     1   6 C    3.994 --     2 C    0.997    34 H    0.985    33 H    0.983
                            35 H    0.982
     2   6 C    3.943 --     1 C    0.997     4 C    0.991     3 O    0.954
                             5 C    0.936
     3   8 O    2.228 --     9 B    1.124     2 C    0.954
     4   6 C    3.994 --     2 C    0.991    38 H    0.984    37 H    0.984
                            36 H    0.983
     5   6 C    3.942 --     6 C    0.996     7 C    0.991     8 O    0.953
                             2 C    0.936
     6   6 C    3.994 --     5 C    0.996    39 H    0.984    41 H    0.983
                            40 H    0.982
     7   6 C    3.995 --     5 C    0.991    42 H    0.984    44 H    0.984
                            43 H    0.983
     8   8 O    2.229 --     9 B    1.127     5 C    0.953
     9   5 B    3.379 --     8 O    1.127     3 O    1.124    10 C    1.007
    10   6 C    3.959 --    11 C    1.601     9 B    1.007    27 C    0.938
                            29 C    0.203
    11   6 C    3.988 --    10 C    1.601    12 C    1.234    45 H    0.963
    12   6 C    3.946 --    11 C    1.234    13 H    0.974    14 C    0.925
                            31 C    0.663
    13   1 H    0.999 --    12 C    0.974
    14   6 C    3.965 --    16 C    1.021    15 H    0.968    31 C    0.938
                            12 C    0.925
    15   1 H    0.998 --    14 C    0.968
    16   6 C    3.978 --    26 C    1.835    14 C    1.021    17 B    0.998
    17   5 B    3.376 --    25 O    1.134    18 O    1.127    16 C    0.998
    18   8 O    2.232 --    17 B    1.127    19 C    0.953
    19   6 C    3.943 --    20 C    0.997    21 C    0.991    18 O    0.953
                            22 C    0.936
    20   6 C    3.994 --    19 C    0.997    47 H    0.984    46 H    0.983
                            48 H    0.982
    21   6 C    3.994 --    19 C    0.991    51 H    0.984    50 H    0.984
                            49 H    0.983
    22   6 C    3.942 --    24 C    0.996    23 C    0.991    25 O    0.953
                            19 C    0.936
    23   6 C    3.995 --    22 C    0.991    52 H    0.984    54 H    0.984
                            53 H    0.983
    24   6 C    3.994 --    22 C    0.996    55 H    0.985    57 H    0.983
                            56 H    0.982
    25   8 O    2.237 --    17 B    1.134    22 C    0.953
    26   6 C    3.987 --    16 C    1.835    27 C    1.015    58 H    0.967
    27   6 C    3.987 --    26 C    1.015    28 H    0.969    29 C    0.965
                            10 C    0.938
    28   1 H    0.998 --    27 C    0.969
    29   6 C    3.974 --    30 C    1.664    59 H    0.970    27 C    0.965
                            10 C    0.203
    30   6 C    3.984 --    29 C    1.664    31 C    1.210    60 H    0.965
    31   6 C    3.939 --    30 C    1.210    32 H    0.974    14 C    0.938
                            12 C    0.663
    32   1 H    0.999 --    31 C    0.974
    33   1 H    0.997 --     1 C    0.983
    34   1 H    0.998 --     1 C    0.985
    35   1 H    0.997 --     1 C    0.982
    36   1 H    0.997 --     4 C    0.983
    37   1 H    0.998 --     4 C    0.984
    38   1 H    0.998 --     4 C    0.984
    39   1 H    0.998 --     6 C    0.984
    40   1 H    0.997 --     6 C    0.982
    41   1 H    0.997 --     6 C    0.983
    42   1 H    0.998 --     7 C    0.984
    43   1 H    0.997 --     7 C    0.983
    44   1 H    0.998 --     7 C    0.984
    45   1 H    0.999 --    11 C    0.963
    46   1 H    0.997 --    20 C    0.983
    47   1 H    0.998 --    20 C    0.984
    48   1 H    0.997 --    20 C    0.982
    49   1 H    0.997 --    21 C    0.983
    50   1 H    0.998 --    21 C    0.984
    51   1 H    0.998 --    21 C    0.984
    52   1 H    0.998 --    23 C    0.984
    53   1 H    0.997 --    23 C    0.983
    54   1 H    0.998 --    23 C    0.984
    55   1 H    0.998 --    24 C    0.985
    56   1 H    0.997 --    24 C    0.982
    57   1 H    0.997 --    24 C    0.983
    58   1 H    0.998 --    26 C    0.967
    59   1 H    0.999 --    29 C    0.970
    60   1 H    0.999 --    30 C    0.965
 ---------------------------------------------------------------------------

molecular dipole:
                 x           y           z       tot (Debye)
 q only:       -0.235      -0.425       0.174
   full:       -0.109      -0.495       0.111       1.319

           -------------------------------------------------
          | TOTAL ENERGY              -82.306233075530 Eh   |
          | GRADIENT NORM               0.000668682769 Eh/α |
          | HOMO-LUMO GAP               3.160977151669 eV   |
           -------------------------------------------------

 * finished run on 2022/07/09 at 18:33:09.579
