   * xtb version 6.5.0 (homebrew) compiled by 'nhattrup@GPGGRP-SHANNON.CHEME.CMU.EDU' on
          program call               : /opt/homebrew/bin/xtb bvl_bpin2_scan_6-6_xtb.xyz --chrg 0 --uhf 0 --opt --input xcontrol_bvl_bpin2_scan_6-6_xtb

   ID    Z sym.   atoms
    1    6 C      1, 2, 4-7, 10-12, 14, 16, 19-24, 26, 27, 29-31
    2    8 O      3, 8, 18, 25
    3    5 B      9, 17
    4    1 H      13, 15, 28, 32-60
constraining bond 12 31 to    2.1667000 Å, actual value:    2.0556593 Å
constraining bond 10 29 to    1.8333000 Å, actual value:    1.9423318 Å

          :  Hamiltonian                  GFN2-xTB          :
 * total energy  :   -82.1250914 Eh     change       -0.1267978E-08 Eh
 * total energy  :   -82.2596322 Eh     change       -0.1345408E+00 Eh
 * total energy  :   -82.3014757 Eh     change       -0.4184353E-01 Eh
 * total energy  :   -82.3022335 Eh     change       -0.7578274E-03 Eh
 * total energy  :   -82.3025493 Eh     change       -0.3157951E-03 Eh
 * total energy  :   -82.3002534 Eh     change        0.2295890E-02 Eh
 * total energy  :   -82.3031582 Eh     change       -0.2904749E-02 Eh
 * total energy  :   -82.3033696 Eh     change       -0.2113918E-03 Eh
 * total energy  :   -82.3034868 Eh     change       -0.1171761E-03 Eh
 * total energy  :   -82.3036984 Eh     change       -0.2116455E-03 Eh
 * total energy  :   -82.3037914 Eh     change       -0.2017062E-04 Eh
 * total energy  :   -82.3038086 Eh     change       -0.1720575E-04 Eh
 * total energy  :   -82.3038259 Eh     change       -0.1732466E-04 Eh
 * total energy  :   -82.3038338 Eh     change       -0.7958648E-05 Eh
 * total energy  :   -82.3038402 Eh     change       -0.6323481E-05 Eh
 * total energy  :   -82.3038468 Eh     change       -0.6588948E-05 Eh
 * total energy  :   -82.3038499 Eh     change       -0.3174856E-05 Eh
 * total energy  :   -82.3038530 Eh     change       -0.3051524E-05 Eh
 * total energy  :   -82.3038556 Eh     change       -0.2610438E-05 Eh
   *** GEOMETRY OPTIMIZATION CONVERGED AFTER 21 ITERATIONS ***

 final structure:
================
60
 xtb: 6.5.0 (homebrew)
C            3.48850748605838      -37.72269438691669       15.89894983543618
C            3.73476813832915      -38.13866600384871       17.34732025623547
O            3.26248560439270      -37.11482059495842       18.22261857069656
C            2.91635208592265      -39.39963809920864       17.65288912925939
C            5.24752352260239      -38.28031417922178       17.75033776244659
C            5.76800923260075      -39.71469112977147       17.80510565235385
C            6.18004935560591      -37.43985232019031       16.86907040299611
O            5.28870257625636      -37.70842816202087       19.05829464182738
B            4.15551428889883      -36.96948322129821       19.25168741434404
C            3.89204836120705      -36.08569029922382       20.50226568742147
C            4.91629246924553      -35.97232699171113       21.49439206992258
C            4.93071717593355      -35.19404064947392       22.59474723090910
H            5.84169135629064      -35.16376402498138       23.17826706707483
C            3.83144023823777      -34.29490129282799       23.06237531800931
H            4.05982011485893      -33.89521609415754       24.05092472511681
C            2.45410966200531      -34.89890336531447       23.11432623147364
B            1.70751441241543      -34.89071379170866       24.48366350229499
O            2.22393739068557      -34.36311198031451       25.63512105549743
C            1.36295094187871      -34.70060408107555       26.72156994281182
C            1.23008935684945      -33.50348789522074       27.66006406029217
C            2.03191817728669      -35.85762490928573       27.47479651149976
C            0.03294449236135      -35.12953535545888       26.00135819603560
C           -0.98239476038749      -33.98499942056415       25.88973719341266
C           -0.65798662588934      -36.35300366066059       26.59971900620521
O            0.46629484813022      -35.43074265955045       24.67557142666171
C            1.88718616540460      -35.46836929443396       22.04931356736295
C            2.46767580582744      -35.59116171235030       20.70003713914166
H            1.78597900168958      -36.08498971902268       20.01245996261344
C            3.19114285233515      -34.45895864310536       20.04561990805816
C            3.81358002819821      -33.36434617494773       20.69853508112854
C            4.11400740233706      -33.27262787608866       22.01165449888189
H            4.67513127897008      -32.40753825726627       22.33991637622601
H            2.41639390709048      -37.66835042325354       15.72642749751919
H            3.91729676436493      -38.45453511300110       15.21983275035689
H            3.91201650441194      -36.74506861446418       15.69278216566319
H            1.86266013135798      -39.17106643049743       17.50955194702471
H            3.05752074326216      -39.69789118078473       18.68872904742133
H            3.19319239144425      -40.21652848295256       16.99328461282218
H            5.65981883398870      -40.19123249747057       16.83449018623260
H            5.24108002557222      -40.29515627226613       18.55535748537310
H            6.82151220117936      -39.69686529344406       18.07282125012948
H            6.23286431604790      -37.83809089686477       15.86030622238985
H            7.17467101175388      -37.45382016513164       17.30872234243741
H            5.84095079122058      -36.40727613665212       16.84103292929271
H            5.81974749152425      -36.51598192027857       21.24582349265366
H            2.19739525679124      -33.30194148635581       28.11367477994093
H            0.51197481126371      -33.72139598093668       28.44602303453347
H            0.91946854701303      -32.61423612775874       27.12129293256289
H            3.01850913319985      -35.53438522500470       27.79902862001623
H            2.15938671697703      -36.71137638305745       26.81394581638460
H            1.45119478549756      -36.14808123835372       28.34511740747599
H           -1.38946525705565      -33.72392472506615       26.86199347510314
H           -1.79351828776362      -34.30682391922893       25.24064067406776
H           -0.51767141396702      -33.11261679686768       25.43729099809156
H           -0.91461548275352      -36.16995659557244       27.63963794186920
H           -0.02632886720821      -37.23259177811772       26.53055843515963
H           -1.56988185279423      -36.54934490964455       26.04135632926778
H            0.90083672717099      -35.89656619983166       22.16983589870976
H            3.08165135736977      -34.40022383873367       18.97389348101969
H            4.16705627650193      -32.57635512222920       20.04357882283333

          :  Hamiltonian                  GFN2-xTB          :
         :: total energy             -82.303855594631 Eh    ::
         :: gradient norm              0.000739886644 Eh/a0 ::
         :: HOMO-LUMO gap              3.234971249009 eV    ::
         :: SCC energy               -83.384058922688 Eh    ::
         :: -> dispersion             -0.061879089107 Eh    ::
         :: repulsion energy           1.079409529790 Eh    ::

    * Orbital Energies and Occupations

         #    Occupation            Energy/Eh            Energy/eV
      -------------------------------------------------------------
         1        2.0000           -0.6906245             -18.7928
       ...           ...                  ...                  ...
        63        2.0000           -0.4340509             -11.8111
        64        2.0000           -0.4330721             -11.7845
        65        2.0000           -0.4269520             -11.6180
        66        2.0000           -0.4225218             -11.4974
        67        2.0000           -0.4189263             -11.3996
        68        2.0000           -0.4154983             -11.3063
        69        2.0000           -0.4038122             -10.9883
        70        2.0000           -0.3994110             -10.8685
        71        2.0000           -0.3968609             -10.7991
        72        2.0000           -0.3946847             -10.7399
        73        2.0000           -0.3861014             -10.5064
        74        2.0000           -0.3507000              -9.5430
        75        2.0000           -0.3468982              -9.4396 (HOMO)
        76                         -0.2280152              -6.2046 (LUMO)
        77                         -0.2070034              -5.6328
        78                         -0.1859154              -5.0590
        79                         -0.1369561              -3.7268
        80                         -0.0961738              -2.6170
        81                         -0.0494622              -1.3459
        82                          0.0069418               0.1889
        83                          0.0102877               0.2799
        84                          0.0264101               0.7187
        85                          0.0297489               0.8095
        86                          0.0550659               1.4984
       ...                                ...                  ...
       144                          0.6869742              18.6935
      -------------------------------------------------------------
                  HL-Gap            0.1188830 Eh            3.2350 eV

     #   Z          covCN         q      C6AA      α(0)
     1   6 C        3.755    -0.117    22.794     6.808
     2   6 C        3.859     0.130    18.440     6.107
     3   8 O        1.638    -0.379    20.458     6.105
     4   6 C        3.755    -0.116    22.781     6.806
     5   6 C        3.860     0.130    18.445     6.108
     6   6 C        3.755    -0.118    22.808     6.810
     7   6 C        3.755    -0.116    22.771     6.804
     8   8 O        1.638    -0.373    20.336     6.087
     9   5 B        2.658     0.436    15.515     6.633
    10   6 C        3.663    -0.067    22.079     6.740
    11   6 C        2.890    -0.047    29.175     8.856
    12   6 C        3.072    -0.031    28.689     8.782
    13   1 H        0.925     0.025     2.665     2.553
    14   6 C        3.865    -0.015    20.794     6.485
    15   1 H        0.924     0.044     2.392     2.419
    16   6 C        2.865    -0.082    30.048     8.985
    17   5 B        2.662     0.432    15.557     6.639
    18   8 O        1.638    -0.371    20.298     6.082
    19   6 C        3.860     0.129    18.455     6.109
    20   6 C        3.755    -0.117    22.796     6.808
    21   6 C        3.755    -0.116    22.776     6.805
    22   6 C        3.860     0.129    18.454     6.109
    23   6 C        3.755    -0.116    22.781     6.806
    24   6 C        3.755    -0.117    22.803     6.809
    25   8 O        1.638    -0.372    20.316     6.084
    26   6 C        2.896    -0.028    28.690     8.782
    27   6 C        3.861    -0.007    20.669     6.465
    28   1 H        0.925     0.045     2.386     2.416
    29   6 C        3.691    -0.014    21.005     6.558
    30   6 C        2.888    -0.046    29.143     8.851
    31   6 C        3.074    -0.027    28.590     8.767
    32   1 H        0.925     0.026     2.647     2.544
    33   1 H        0.925     0.054     2.265     2.354
    34   1 H        0.925     0.040     2.451     2.448
    35   1 H        0.925     0.051     2.303     2.373
    36   1 H        0.925     0.052     2.294     2.369
    37   1 H        0.925     0.044     2.398     2.422
    38   1 H        0.925     0.043     2.413     2.429
    39   1 H        0.925     0.040     2.446     2.446
    40   1 H        0.925     0.053     2.289     2.366
    41   1 H        0.925     0.055     2.260     2.351
    42   1 H        0.925     0.043     2.411     2.428
    43   1 H        0.925     0.053     2.288     2.365
    44   1 H        0.925     0.043     2.410     2.427
    45   1 H        0.925     0.032     2.555     2.500
    46   1 H        0.925     0.054     2.269     2.355
    47   1 H        0.925     0.039     2.456     2.451
    48   1 H        0.925     0.052     2.297     2.370
    49   1 H        0.925     0.052     2.294     2.369
    50   1 H        0.925     0.044     2.400     2.423
    51   1 H        0.925     0.042     2.421     2.433
    52   1 H        0.925     0.042     2.416     2.431
    53   1 H        0.925     0.052     2.293     2.368
    54   1 H        0.925     0.044     2.399     2.422
    55   1 H        0.925     0.040     2.453     2.449
    56   1 H        0.925     0.052     2.295     2.369
    57   1 H        0.925     0.054     2.268     2.355
    58   1 H        0.925     0.038     2.481     2.463
    59   1 H        0.926     0.036     2.499     2.472
    60   1 H        0.925     0.023     2.695     2.567

Wiberg/Mayer (AO) data.
largest (>0.10) Wiberg bond orders for each atom

     #   Z sym  total        # sym  WBO       # sym  WBO       # sym  WBO
 ---------------------------------------------------------------------------
     1   6 C    3.994 --     2 C    0.997    34 H    0.984    33 H    0.983
                            35 H    0.982
     2   6 C    3.943 --     1 C    0.997     4 C    0.991     3 O    0.952
                             5 C    0.937
     3   8 O    2.220 --     9 B    1.118     2 C    0.952
     4   6 C    3.994 --     2 C    0.991    38 H    0.984    37 H    0.984
                            36 H    0.983
     5   6 C    3.942 --     6 C    0.997     7 C    0.991     8 O    0.951
                             2 C    0.937
     6   6 C    3.994 --     5 C    0.997    39 H    0.984    41 H    0.982
                            40 H    0.982
     7   6 C    3.995 --     5 C    0.991    42 H    0.984    44 H    0.984
                            43 H    0.983
     8   8 O    2.229 --     9 B    1.129     5 C    0.951
     9   5 B    3.383 --     8 O    1.129     3 O    1.118    10 C    1.014
    10   6 C    3.922 --    11 C    1.206     9 B    1.014    27 C    0.902
                            29 C    0.585
    11   6 C    3.989 --    12 C    1.702    10 C    1.206    45 H    0.962
    12   6 C    3.979 --    11 C    1.702    13 H    0.970    14 C    0.968
                            31 C    0.159
    13   1 H    0.999 --    12 C    0.970
    14   6 C    3.991 --    16 C    0.989    31 C    0.975    15 H    0.970
                            12 C    0.968
    15   1 H    0.998 --    14 C    0.970
    16   6 C    3.976 --    26 C    1.835    17 B    1.000    14 C    0.989
    17   5 B    3.376 --    25 O    1.130    18 O    1.128    16 C    1.000
    18   8 O    2.234 --    17 B    1.128    19 C    0.953
    19   6 C    3.943 --    20 C    0.997    21 C    0.991    18 O    0.953
                            22 C    0.936
    20   6 C    3.994 --    19 C    0.997    47 H    0.985    46 H    0.983
                            48 H    0.982
    21   6 C    3.994 --    19 C    0.991    51 H    0.984    50 H    0.984
                            49 H    0.983
    22   6 C    3.943 --    24 C    0.996    23 C    0.991    25 O    0.953
                            19 C    0.936
    23   6 C    3.995 --    22 C    0.991    52 H    0.984    54 H    0.984
                            53 H    0.983
    24   6 C    3.994 --    22 C    0.996    55 H    0.985    57 H    0.983
                            56 H    0.982
    25   8 O    2.233 --    17 B    1.130    22 C    0.953
    26   6 C    3.988 --    16 C    1.835    27 C    1.042    58 H    0.965
    27   6 C    3.975 --    26 C    1.042    28 H    0.968    29 C    0.952
                            10 C    0.902
    28   1 H    0.998 --    27 C    0.968
    29   6 C    3.942 --    30 C    1.234    59 H    0.974    27 C    0.952
                            10 C    0.585
    30   6 C    3.988 --    31 C    1.680    29 C    1.234    60 H    0.964
    31   6 C    3.971 --    30 C    1.680    14 C    0.975    32 H    0.971
                            12 C    0.159
    32   1 H    0.999 --    31 C    0.971
    33   1 H    0.997 --     1 C    0.983
    34   1 H    0.998 --     1 C    0.984
    35   1 H    0.997 --     1 C    0.982
    36   1 H    0.997 --     4 C    0.983
    37   1 H    0.998 --     4 C    0.984
    38   1 H    0.998 --     4 C    0.984
    39   1 H    0.998 --     6 C    0.984
    40   1 H    0.997 --     6 C    0.982
    41   1 H    0.997 --     6 C    0.982
    42   1 H    0.998 --     7 C    0.984
    43   1 H    0.997 --     7 C    0.983
    44   1 H    0.998 --     7 C    0.984
    45   1 H    0.999 --    11 C    0.962
    46   1 H    0.997 --    20 C    0.983
    47   1 H    0.998 --    20 C    0.985
    48   1 H    0.997 --    20 C    0.982
    49   1 H    0.997 --    21 C    0.983
    50   1 H    0.998 --    21 C    0.984
    51   1 H    0.998 --    21 C    0.984
    52   1 H    0.998 --    23 C    0.984
    53   1 H    0.997 --    23 C    0.983
    54   1 H    0.998 --    23 C    0.984
    55   1 H    0.998 --    24 C    0.985
    56   1 H    0.997 --    24 C    0.982
    57   1 H    0.997 --    24 C    0.983
    58   1 H    0.998 --    26 C    0.965
    59   1 H    0.998 --    29 C    0.974
    60   1 H    0.999 --    30 C    0.964
 ---------------------------------------------------------------------------

molecular dipole:
                 x           y           z       tot (Debye)
 q only:       -0.308      -0.447      -0.041
   full:       -0.223      -0.521      -0.144       1.488

           -------------------------------------------------
          | TOTAL ENERGY              -82.303855594631 Eh   |
          | GRADIENT NORM               0.000739886644 Eh/α |
          | HOMO-LUMO GAP               3.234971249009 eV   |
           -------------------------------------------------

 * finished run on 2022/07/09 at 18:33:33.558
