   * xtb version 6.5.0 (homebrew) compiled by 'nhattrup@GPGGRP-SHANNON.CHEME.CMU.EDU' on
          program call               : /opt/homebrew/bin/xtb bvl_bpin2_scan_2-7_xtb.xyz --chrg 0 --uhf 0 --opt --input xcontrol_bvl_bpin2_scan_2-7_xtb

   ID    Z sym.   atoms
    1    6 C      1, 2, 4-7, 10-12, 14, 16, 19-24, 26, 27, 29-31
    2    8 O      3, 8, 18, 25
    3    5 B      9, 17
    4    1 H      13, 15, 28, 32-60
constraining bond 12 31 to    1.7222000 Å, actual value:    1.6120607 Å
constraining bond 10 29 to    1.7222000 Å, actual value:    1.8358050 Å

          :  Hamiltonian                  GFN2-xTB          :
 * total energy  :   -82.1210915 Eh     change       -0.9712551E-09 Eh
 * total energy  :   -82.2545087 Eh     change       -0.1334172E+00 Eh
 * total energy  :   -82.2968152 Eh     change       -0.4230651E-01 Eh
 * total energy  :   -82.2975490 Eh     change       -0.7338172E-03 Eh
 * total energy  :   -82.2939503 Eh     change        0.3598646E-02 Eh
 * total energy  :   -82.2979180 Eh     change       -0.3967658E-02 Eh
 * total energy  :   -82.2980353 Eh     change       -0.1173334E-03 Eh
 * total energy  :   -82.2981108 Eh     change       -0.7543852E-04 Eh
 * total energy  :   -82.2981468 Eh     change       -0.3600498E-04 Eh
 * total energy  :   -82.2981915 Eh     change       -0.4473170E-04 Eh
 * total energy  :   -82.2982151 Eh     change       -0.9528558E-05 Eh
 * total energy  :   -82.2982209 Eh     change       -0.5830802E-05 Eh
 * total energy  :   -82.2982352 Eh     change       -0.1426926E-04 Eh
 * total energy  :   -82.2982406 Eh     change       -0.5419076E-05 Eh
 * total energy  :   -82.2982480 Eh     change       -0.7394417E-05 Eh
 * total energy  :   -82.2982510 Eh     change       -0.2991713E-05 Eh
 * total energy  :   -82.2982542 Eh     change       -0.3188109E-05 Eh
 * total energy  :   -82.2982557 Eh     change       -0.1560738E-05 Eh
 * total energy  :   -82.2982590 Eh     change       -0.3271005E-05 Eh
   *** GEOMETRY OPTIMIZATION CONVERGED AFTER 20 ITERATIONS ***

 final structure:
================
60
 xtb: 6.5.0 (homebrew)
C            3.47492693081390      -37.74799898914531       15.91159210423951
C            3.71830984699566      -38.14381378244587       17.36621393504635
O            3.24459705462607      -37.10780648649776       18.22722412048614
C            2.89860392277008      -39.39968186829086       17.68754717866396
C            5.23159694053300      -38.27900999898419       17.77204905874612
C            5.74590843258805      -39.71289966070535       17.87333483955499
C            6.16980529285196      -37.47108680409039       16.86697102550052
O            5.27714566505443      -37.66758727764515       19.06231552638973
B            4.14327749901914      -36.93158824797840       19.24258200939491
C            3.89551643762268      -35.98588666050251       20.46607141950736
C            4.92863830323672      -35.87111930339583       21.41578769280759
C            4.97097730110818      -34.92990704722752       22.44381961546990
H            5.91394281418723      -34.84564176818222       22.97174584330158
C            3.80721022173259      -34.26514723225593       23.10949891033722
H            4.05071804864985      -33.86721224864882       24.08995097579110
C            2.45307316986903      -34.88714722571972       23.12902247482980
B            1.70092054722737      -34.90031922531907       24.49444920621319
O            2.20903721387170      -34.38114915730189       25.65444700271330
C            1.34236379974366      -34.73282192549350       26.73212890528731
C            1.20049018795424      -33.54657979102669       27.68304077003285
C            2.00909357585074      -35.89668515141489       27.47682931611166
C            0.01823727063964      -35.15682092054752       25.99892954150644
C           -0.99579001853789      -34.01114772445384       25.88799227053753
C           -0.67671495299502      -36.38500749260339       26.58224091713830
O            0.46134372967754      -35.44783247712478       24.67425295524276
C            1.89440655645797      -35.44663282395980       22.05430917926854
C            2.46482335659704      -35.55677334405834       20.70059872014955
H            1.78403511075061      -36.05072723584841       20.01430619784186
C            3.22535650779309      -34.45511293854989       20.04526657958380
C            3.84268113968360      -33.37123075057712       20.67471458926501
C            4.30397487961905      -33.40639307574962       21.99358695571935
H            4.91836071421843      -32.56817927699248       22.30169950441401
H            2.40341413080805      -37.69740075644259       15.73445493430961
H            3.90658478461610      -38.48942882266254       15.24483422331316
H            3.89827751521147      -36.77318224595674       15.69215812746737
H            1.84570541485713      -39.17366452385065       17.53494645856804
H            3.03404730210859      -39.68134919816752       18.72869638381260
H            3.17932198543372      -40.22669693149331       17.04240148957183
H            5.64354506809049      -40.21848836030716       16.91699269338718
H            5.21134146334118      -40.26778352015795       18.63729285532036
H            6.79718578537313      -39.68948537123885       18.14889254900009
H            6.21801973155199      -37.89753477028059       15.86967832553650
H            7.16472382910867      -37.48257848694871       17.30602010784143
H            5.84100347908239      -36.43640895618783       16.81056264600040
H            5.86890550589768      -36.32249229293933       21.12812969391893
H            2.16388965012673      -33.34878879548717       28.14652244093230
H            0.47652948561159      -33.77428677829499       28.46082829093170
H            0.89283937585850      -32.65180299555245       27.15179277446790
H            2.99275684229265      -35.57488306619329       27.81125996361721
H            2.14277355133338      -36.74264576851152       26.80725893926749
H            1.42335955459080      -36.19824096822435       28.34000697239639
H           -1.41237164581531      -33.75899377282849       26.85855197395327
H           -1.80029857208608      -34.32681941434829       25.22776016452694
H           -0.52620859915202      -33.13488558738138       25.44820472725134
H           -0.94060886297650      -36.21071000453252       27.62182000777415
H           -0.04419336094368      -37.26372707792006       26.50993036049892
H           -1.58452164447129      -36.57657492863272       26.01563295600473
H            0.91163016955373      -35.88323921571934       22.17043046246149
H            3.05552148193844      -34.36253449510357       18.97989804552902
H            4.27360907844791      -32.61549498189873       20.03029209124746

          :  Hamiltonian                  GFN2-xTB          :
         :: total energy             -82.298258990822 Eh    ::
         :: gradient norm              0.000953122559 Eh/a0 ::
         :: HOMO-LUMO gap              2.621415085466 eV    ::
         :: SCC energy               -83.371563518288 Eh    ::
         :: -> dispersion             -0.060952199286 Eh    ::
         :: repulsion energy           1.072664911705 Eh    ::

    * Orbital Energies and Occupations

         #    Occupation            Energy/Eh            Energy/eV
      -------------------------------------------------------------
         1        2.0000           -0.6922893             -18.8382
       ...           ...                  ...                  ...
        63        2.0000           -0.4370616             -11.8931
        64        2.0000           -0.4357248             -11.8567
        65        2.0000           -0.4301357             -11.7046
        66        2.0000           -0.4231208             -11.5137
        67        2.0000           -0.4188576             -11.3977
        68        2.0000           -0.4137100             -11.2576
        69        2.0000           -0.4082508             -11.1091
        70        2.0000           -0.4008380             -10.9074
        71        2.0000           -0.3980166             -10.8306
        72        2.0000           -0.3955154             -10.7625
        73        2.0000           -0.3787963             -10.3076
        74        2.0000           -0.3717742             -10.1165
        75        2.0000           -0.3206529              -8.7254 (HOMO)
        76                         -0.2243176              -6.1040 (LUMO)
        77                         -0.2137759              -5.8171
        78                         -0.1559565              -4.2438
        79                         -0.1045515              -2.8450
        80                         -0.0761384              -2.0718
        81                         -0.0062223              -0.1693
        82                          0.0036847               0.1003
        83                          0.0106308               0.2893
        84                          0.0252836               0.6880
        85                          0.0300470               0.8176
        86                          0.0545858               1.4854
       ...                                ...                  ...
       144                          0.6974483              18.9785
      -------------------------------------------------------------
                  HL-Gap            0.0963352 Eh            2.6214 eV

     #   Z          covCN         q      C6AA      α(0)
     1   6 C        3.755    -0.117    22.800     6.808
     2   6 C        3.858     0.129    18.447     6.108
     3   8 O        1.638    -0.375    20.386     6.095
     4   6 C        3.755    -0.117    22.787     6.806
     5   6 C        3.860     0.129    18.452     6.109
     6   6 C        3.755    -0.118    22.817     6.811
     7   6 C        3.755    -0.116    22.780     6.805
     8   8 O        1.638    -0.370    20.289     6.080
     9   5 B        2.658     0.439    15.483     6.626
    10   6 C        3.774    -0.058    21.640     6.628
    11   6 C        2.892    -0.066    29.645     8.927
    12   6 C        3.800    -0.008    20.726     6.482
    13   1 H        0.925     0.029     2.603     2.523
    14   6 C        3.865    -0.020    20.890     6.500
    15   1 H        0.925     0.043     2.412     2.428
    16   6 C        2.863    -0.084    30.100     8.993
    17   5 B        2.663     0.432    15.553     6.637
    18   8 O        1.638    -0.373    20.340     6.088
    19   6 C        3.860     0.129    18.453     6.109
    20   6 C        3.755    -0.117    22.797     6.808
    21   6 C        3.755    -0.116    22.777     6.805
    22   6 C        3.860     0.129    18.453     6.109
    23   6 C        3.755    -0.116    22.783     6.806
    24   6 C        3.755    -0.117    22.804     6.809
    25   8 O        1.638    -0.371    20.313     6.084
    26   6 C        2.896    -0.026    28.658     8.777
    27   6 C        3.863    -0.018    20.852     6.494
    28   1 H        0.925     0.042     2.429     2.437
    29   6 C        3.803    -0.005    20.675     6.474
    30   6 C        2.888    -0.072    29.787     8.948
    31   6 C        3.802    -0.006    20.690     6.476
    32   1 H        0.925     0.029     2.603     2.523
    33   1 H        0.925     0.055     2.259     2.350
    34   1 H        0.925     0.040     2.443     2.444
    35   1 H        0.925     0.052     2.298     2.371
    36   1 H        0.925     0.053     2.285     2.364
    37   1 H        0.925     0.044     2.392     2.419
    38   1 H        0.925     0.043     2.406     2.426
    39   1 H        0.925     0.041     2.437     2.441
    40   1 H        0.925     0.053     2.284     2.363
    41   1 H        0.925     0.056     2.252     2.347
    42   1 H        0.925     0.043     2.403     2.424
    43   1 H        0.925     0.053     2.279     2.361
    44   1 H        0.925     0.044     2.402     2.424
    45   1 H        0.925     0.028     2.617     2.530
    46   1 H        0.925     0.054     2.272     2.357
    47   1 H        0.925     0.039     2.456     2.451
    48   1 H        0.925     0.052     2.295     2.369
    49   1 H        0.925     0.052     2.298     2.370
    50   1 H        0.925     0.044     2.399     2.422
    51   1 H        0.925     0.042     2.421     2.433
    52   1 H        0.925     0.042     2.417     2.431
    53   1 H        0.925     0.052     2.292     2.367
    54   1 H        0.925     0.044     2.397     2.421
    55   1 H        0.925     0.040     2.454     2.450
    56   1 H        0.925     0.052     2.295     2.369
    57   1 H        0.925     0.054     2.267     2.355
    58   1 H        0.925     0.038     2.477     2.461
    59   1 H        0.925     0.033     2.545     2.495
    60   1 H        0.925     0.016     2.796     2.615

Wiberg/Mayer (AO) data.
largest (>0.10) Wiberg bond orders for each atom

     #   Z sym  total        # sym  WBO       # sym  WBO       # sym  WBO
 ---------------------------------------------------------------------------
     1   6 C    3.994 --     2 C    0.997    34 H    0.984    33 H    0.982
                            35 H    0.982
     2   6 C    3.942 --     1 C    0.997     4 C    0.991     3 O    0.951
                             5 C    0.937
     3   8 O    2.229 --     9 B    1.129     2 C    0.951
     4   6 C    3.994 --     2 C    0.991    38 H    0.984    37 H    0.984
                            36 H    0.983
     5   6 C    3.941 --     6 C    0.997     7 C    0.991     8 O    0.950
                             2 C    0.937
     6   6 C    3.994 --     5 C    0.997    39 H    0.984    41 H    0.982
                            40 H    0.982
     7   6 C    3.995 --     5 C    0.991    42 H    0.984    44 H    0.984
                            43 H    0.983
     8   8 O    2.239 --     9 B    1.139     5 C    0.950
     9   5 B    3.377 --     8 O    1.139     3 O    1.129    10 C    0.994
    10   6 C    3.937 --    11 C    1.331     9 B    0.994    27 C    0.889
                            29 C    0.543
    11   6 C    3.977 --    12 C    1.379    10 C    1.331    45 H    0.964
                            30 C    0.185
    12   6 C    3.957 --    11 C    1.379    13 H    0.972    14 C    0.923
                            31 C    0.551
    13   1 H    0.999 --    12 C    0.972
    14   6 C    3.961 --    16 C    1.011    15 H    0.968    31 C    0.933
                            12 C    0.923
    15   1 H    0.998 --    14 C    0.968
    16   6 C    3.978 --    26 C    1.824    14 C    1.011    17 B    1.001
    17   5 B    3.376 --    25 O    1.129    18 O    1.126    16 C    1.001
    18   8 O    2.231 --    17 B    1.126    19 C    0.953
    19   6 C    3.943 --    20 C    0.997    21 C    0.991    18 O    0.953
                            22 C    0.937
    20   6 C    3.994 --    19 C    0.997    47 H    0.985    46 H    0.983
                            48 H    0.982
    21   6 C    3.994 --    19 C    0.991    51 H    0.984    50 H    0.984
                            49 H    0.983
    22   6 C    3.943 --    24 C    0.996    23 C    0.990    25 O    0.953
                            19 C    0.937
    23   6 C    3.995 --    22 C    0.990    52 H    0.985    54 H    0.984
                            53 H    0.983
    24   6 C    3.994 --    22 C    0.996    55 H    0.985    57 H    0.983
                            56 H    0.982
    25   8 O    2.233 --    17 B    1.129    22 C    0.953
    26   6 C    3.989 --    16 C    1.824    27 C    1.040    58 H    0.966
    27   6 C    3.962 --    26 C    1.040    28 H    0.969    29 C    0.929
                            10 C    0.889
    28   1 H    0.998 --    27 C    0.969
    29   6 C    3.954 --    30 C    1.359    59 H    0.971    27 C    0.929
                            10 C    0.543
    30   6 C    3.968 --    31 C    1.361    29 C    1.359    60 H    0.966
                            11 C    0.185
    31   6 C    3.953 --    30 C    1.361    32 H    0.972    14 C    0.933
                            12 C    0.551
    32   1 H    0.999 --    31 C    0.972
    33   1 H    0.997 --     1 C    0.982
    34   1 H    0.998 --     1 C    0.984
    35   1 H    0.997 --     1 C    0.982
    36   1 H    0.997 --     4 C    0.983
    37   1 H    0.998 --     4 C    0.984
    38   1 H    0.998 --     4 C    0.984
    39   1 H    0.998 --     6 C    0.984
    40   1 H    0.997 --     6 C    0.982
    41   1 H    0.997 --     6 C    0.982
    42   1 H    0.998 --     7 C    0.984
    43   1 H    0.997 --     7 C    0.983
    44   1 H    0.998 --     7 C    0.984
    45   1 H    0.999 --    11 C    0.964
    46   1 H    0.997 --    20 C    0.983
    47   1 H    0.998 --    20 C    0.985
    48   1 H    0.997 --    20 C    0.982
    49   1 H    0.997 --    21 C    0.983
    50   1 H    0.998 --    21 C    0.984
    51   1 H    0.998 --    21 C    0.984
    52   1 H    0.998 --    23 C    0.985
    53   1 H    0.997 --    23 C    0.983
    54   1 H    0.998 --    23 C    0.984
    55   1 H    0.998 --    24 C    0.985
    56   1 H    0.997 --    24 C    0.982
    57   1 H    0.997 --    24 C    0.983
    58   1 H    0.998 --    26 C    0.966
    59   1 H    0.998 --    29 C    0.971
    60   1 H    0.999 --    30 C    0.966
 ---------------------------------------------------------------------------

molecular dipole:
                 x           y           z       tot (Debye)
 q only:       -0.230      -0.538      -0.029
   full:       -0.112      -0.603      -0.102       1.580

           -------------------------------------------------
          | TOTAL ENERGY              -82.298258990822 Eh   |
          | GRADIENT NORM               0.000953122559 Eh/α |
          | HOMO-LUMO GAP               2.621415085466 eV   |
           -------------------------------------------------

 * finished run on 2022/07/09 at 18:33:23.885
