   * xtb version 6.5.0 (homebrew) compiled by 'nhattrup@GPGGRP-SHANNON.CHEME.CMU.EDU' on
          program call               : /opt/homebrew/bin/xtb bvl_bpin2_scan_5-1_xtb.xyz --chrg 0 --uhf 0 --opt --input xcontrol_bvl_bpin2_scan_5-1_xtb

   ID    Z sym.   atoms
    1    6 C      1, 2, 4-7, 10-12, 14, 16, 19-24, 26, 27, 29-31
    2    8 O      3, 8, 18, 25
    3    5 B      9, 17
    4    1 H      13, 15, 28, 32-60
constraining bond 12 31 to    2.0556000 Å, actual value:    1.9387791 Å
constraining bond 10 29 to    2.3889000 Å, actual value:    2.4978455 Å

          :  Hamiltonian                  GFN2-xTB          :
 * total energy  :   -82.1092809 Eh     change       -0.2164725E-08 Eh
 * total energy  :   -82.2400596 Eh     change       -0.1307787E+00 Eh
 * total energy  :   -82.2839116 Eh     change       -0.4385194E-01 Eh
 * total energy  :   -82.2846407 Eh     change       -0.7290806E-03 Eh
 * total energy  :   -82.2848458 Eh     change       -0.2051736E-03 Eh
 * total energy  :   -82.2809493 Eh     change        0.3896535E-02 Eh
 * total energy  :   -82.2855848 Eh     change       -0.4635468E-02 Eh
 * total energy  :   -82.2857687 Eh     change       -0.1838798E-03 Eh
 * total energy  :   -82.2859854 Eh     change       -0.2167092E-03 Eh
 * total energy  :   -82.2863097 Eh     change       -0.3243220E-03 Eh
 * total energy  :   -82.2872451 Eh     change       -0.2104672E-04 Eh
 * total energy  :   -82.2872660 Eh     change       -0.2090229E-04 Eh
 * total energy  :   -82.2872802 Eh     change       -0.1418807E-04 Eh
 * total energy  :   -82.2872911 Eh     change       -0.1096581E-04 Eh
 * total energy  :   -82.2872955 Eh     change       -0.4394455E-05 Eh
 * total energy  :   -82.2873064 Eh     change       -0.1087217E-04 Eh
 * total energy  :   -82.2873088 Eh     change       -0.2376587E-05 Eh
 * total energy  :   -82.2873109 Eh     change       -0.2128970E-05 Eh
 * total energy  :   -82.2873136 Eh     change       -0.2680270E-05 Eh
   *** GEOMETRY OPTIMIZATION CONVERGED AFTER 48 ITERATIONS ***

 final structure:
================
60
 xtb: 6.5.0 (homebrew)
C            3.45061318774868      -37.88179466056067       16.01242419609866
C            3.67688538819217      -38.21501912794700       17.48568834910310
O            3.25920937313932      -37.11640188280674       18.29243478263271
C            2.79463510449029      -39.40998830893669       17.87048835600585
C            5.18138472513366      -38.40913467066925       17.89815311474465
C            5.62645046031993      -39.86271183017980       18.04459898490261
C            6.15451262507829      -37.67888492892041       16.96332668189190
O            5.25705970029367      -37.75882068229669       19.16520754297370
B            4.16100242180855      -36.94870306715178       19.31128849536003
C            3.95140801506501      -35.98481251186959       20.50437243266107
C            4.98200564697601      -35.73082836373288       21.37010036950968
C            5.02087733868233      -34.87116642029403       22.46971698492576
H            5.97565258663628      -34.70693252413460       22.94682088916896
C            3.86402454865759      -34.10276703890857       23.05637513291374
H            4.08451727947715      -33.77764720617667       24.07261757989458
C            2.51025450591973      -34.74070491217339       23.03122440003256
B            1.74920060655053      -34.86083226204701       24.38800162945597
O            2.25448911032251      -34.41886440721905       25.58062503179419
C            1.39343954180259      -34.85178244246899       26.63284690503134
C            1.24345159569903      -33.73335229612314       27.66167784441854
C            2.07385203650623      -36.05629499485921       27.29601187185718
C            0.07217181303019      -35.23823657052488       25.87384689314331
C           -0.95474918490184      -34.09911132707128       25.84599744438717
C           -0.60755694495844      -36.51176735042085       26.37219732694475
O            0.51548843895697      -35.43015180195003       24.53052111317177
C            1.98304550353603      -35.22861197736234       21.90738456423859
C            2.63075323270420      -35.21200849271803       20.56050243459937
H            1.95464135876947      -35.66969529614009       19.83611797514153
C            3.00963057952017      -33.83840422143052       20.05400270895147
C            3.75921931475042      -32.93804301479201       20.73453518511178
C            4.20709432211546      -33.03278422620931       22.06063830636222
H            4.90756721373930      -32.28629957841143       22.40533197980898
H            2.38241356438196      -37.78776970372635       15.83286825087959
H            3.84450330816690      -38.67514531458098       15.38276866959489
H            3.92021622760875      -36.94033017636535       15.74607798632671
H            1.75426550904314      -39.13548436749321       17.71214604047087
H            2.92260798810923      -39.64676372271420       18.92384530365474
H            3.02650821819445      -40.28154711997957       17.26567717802588
H            5.49308933683978      -40.39370330501671       17.10579485632171
H            5.07018582902424      -40.36581318281339       18.82885145866022
H            6.67959879665101      -39.88258440507729       18.31393062335054
H            6.18236790553983      -38.14422368958488       15.98261812599692
H            7.14876569733743      -37.71770133643584       17.40252470113170
H            5.87084382131835      -36.63359955262045       16.86808681764370
H            5.90755160597917      -36.25618130127649       21.16055121664520
H            2.20782288652875      -33.55570960209950       28.13127931119099
H            0.52750535130917      -34.02064374023464       28.42702827605474
H            0.92237173057771      -32.80879918243060       27.19307715312755
H            3.05433939653030      -35.74699046004939       27.65087025337245
H            2.21592049745601      -36.85314604144727       26.57022656799870
H            1.49285159641976      -36.42253245817058       28.13708923482096
H           -1.36947690044484      -33.91937312656395       26.83338364933901
H           -1.75890961153640      -34.37687511489329       25.16860196327234
H           -0.49652282585051      -33.18930961877148       25.46633624215749
H           -0.86710273590827      -36.41341922553779       27.42288520153025
H            0.03289184395358      -37.37691076662971       26.23544397589252
H           -1.51697380314745      -36.67256696065805       25.79870498446838
H            1.00705447543525      -35.69095854995873       21.96664559538763
H            2.79327222422395      -33.65176828575603       19.01257031465750
H            4.07356662050824      -32.04459129260970       20.20484854081814

          :  Hamiltonian                  GFN2-xTB          :
         :: total energy             -82.287313569602 Eh    ::
         :: gradient norm              0.000529039523 Eh/a0 ::
         :: HOMO-LUMO gap              2.000622106363 eV    ::
         :: SCC energy               -83.361493977308 Eh    ::
         :: -> dispersion             -0.062147185582 Eh    ::
         :: repulsion energy           1.073284833387 Eh    ::

    * Orbital Energies and Occupations

         #    Occupation            Energy/Eh            Energy/eV
      -------------------------------------------------------------
         1        2.0000           -0.6873779             -18.7045
       ...           ...                  ...                  ...
        63        2.0000           -0.4361678             -11.8687
        64        2.0000           -0.4287289             -11.6663
        65        2.0000           -0.4249983             -11.5648
        66        2.0000           -0.4198972             -11.4260
        67        2.0000           -0.4185113             -11.3883
        68        2.0000           -0.4132277             -11.2445
        69        2.0000           -0.4019507             -10.9376
        70        2.0000           -0.3970308             -10.8038
        71        2.0000           -0.3945312             -10.7357
        72        2.0000           -0.3934646             -10.7067
        73        2.0000           -0.3922386             -10.6734
        74        2.0000           -0.3623640              -9.8604
        75        2.0000           -0.3318147              -9.0291 (HOMO)
        76                         -0.2582932              -7.0285 (LUMO)
        77                         -0.2187791              -5.9533
        78                         -0.1876116              -5.1052
        79                         -0.1356513              -3.6913
        80                         -0.0974435              -2.6516
        81                         -0.0814486              -2.2163
        82                          0.0091543               0.2491
        83                          0.0145146               0.3950
        84                          0.0289015               0.7864
        85                          0.0313243               0.8524
        86                          0.0569236               1.5490
       ...                                ...                  ...
       144                          0.6790987              18.4792
      -------------------------------------------------------------
                  HL-Gap            0.0735215 Eh            2.0006 eV

     #   Z          covCN         q      C6AA      α(0)
     1   6 C        3.755    -0.117    22.787     6.806
     2   6 C        3.859     0.129    18.447     6.108
     3   8 O        1.638    -0.375    20.381     6.094
     4   6 C        3.755    -0.116    22.767     6.804
     5   6 C        3.859     0.130    18.445     6.108
     6   6 C        3.755    -0.117    22.794     6.808
     7   6 C        3.755    -0.115    22.761     6.803
     8   8 O        1.638    -0.376    20.398     6.096
     9   5 B        2.658     0.430    15.587     6.647
    10   6 C        2.883    -0.087    30.189     9.008
    11   6 C        2.892    -0.034    28.845     8.806
    12   6 C        3.272    -0.023    27.229     8.411
    13   1 H        0.926     0.031     2.573     2.508
    14   6 C        3.863    -0.007    20.669     6.465
    15   1 H        0.925     0.049     2.330     2.387
    16   6 C        2.864    -0.085    30.119     8.996
    17   5 B        2.661     0.431    15.569     6.642
    18   8 O        1.638    -0.372    20.332     6.087
    19   6 C        3.859     0.129    18.457     6.110
    20   6 C        3.755    -0.117    22.800     6.808
    21   6 C        3.755    -0.116    22.781     6.806
    22   6 C        3.860     0.129    18.457     6.110
    23   6 C        3.755    -0.116    22.786     6.806
    24   6 C        3.755    -0.118    22.808     6.810
    25   8 O        1.638    -0.369    20.275     6.078
    26   6 C        2.898    -0.024    28.603     8.769
    27   6 C        3.860    -0.016    20.814     6.488
    28   1 H        0.924     0.047     2.363     2.404
    29   6 C        2.910    -0.033    28.815     8.802
    30   6 C        2.888    -0.038    28.936     8.819
    31   6 C        3.274    -0.019    27.105     8.388
    32   1 H        0.926     0.031     2.566     2.505
    33   1 H        0.925     0.054     2.276     2.359
    34   1 H        0.925     0.039     2.468     2.457
    35   1 H        0.925     0.051     2.309     2.376
    36   1 H        0.925     0.051     2.302     2.373
    37   1 H        0.925     0.043     2.406     2.426
    38   1 H        0.925     0.041     2.432     2.439
    39   1 H        0.925     0.039     2.463     2.454
    40   1 H        0.925     0.052     2.300     2.372
    41   1 H        0.925     0.053     2.278     2.360
    42   1 H        0.925     0.042     2.427     2.436
    43   1 H        0.925     0.051     2.308     2.376
    44   1 H        0.925     0.043     2.415     2.430
    45   1 H        0.925     0.036     2.508     2.476
    46   1 H        0.925     0.054     2.270     2.356
    47   1 H        0.925     0.040     2.452     2.449
    48   1 H        0.925     0.052     2.296     2.370
    49   1 H        0.925     0.052     2.297     2.370
    50   1 H        0.925     0.044     2.398     2.421
    51   1 H        0.925     0.042     2.417     2.431
    52   1 H        0.925     0.043     2.412     2.429
    53   1 H        0.925     0.053     2.287     2.365
    54   1 H        0.925     0.044     2.399     2.422
    55   1 H        0.925     0.040     2.450     2.448
    56   1 H        0.925     0.052     2.292     2.367
    57   1 H        0.925     0.055     2.263     2.352
    58   1 H        0.925     0.038     2.482     2.464
    59   1 H        0.926     0.029     2.596     2.519
    60   1 H        0.925     0.025     2.655     2.548

Wiberg/Mayer (AO) data.
largest (>0.10) Wiberg bond orders for each atom

     #   Z sym  total        # sym  WBO       # sym  WBO       # sym  WBO
 ---------------------------------------------------------------------------
     1   6 C    3.994 --     2 C    0.996    34 H    0.985    33 H    0.983
                            35 H    0.982
     2   6 C    3.944 --     1 C    0.996     4 C    0.990     3 O    0.955
                             5 C    0.936
     3   8 O    2.222 --     9 B    1.116     2 C    0.955
     4   6 C    3.994 --     2 C    0.990    38 H    0.985    37 H    0.984
                            36 H    0.983
     5   6 C    3.943 --     6 C    0.996     7 C    0.990     8 O    0.955
                             2 C    0.936
     6   6 C    3.994 --     5 C    0.996    39 H    0.985    41 H    0.983
                            40 H    0.982
     7   6 C    3.995 --     5 C    0.990    42 H    0.985    44 H    0.984
                            43 H    0.983
     8   8 O    2.221 --     9 B    1.116     5 C    0.955
     9   5 B    3.383 --     8 O    1.116     3 O    1.116    10 C    1.024
    10   6 C    3.959 --    11 C    1.563     9 B    1.024    27 C    0.951
                            29 C    0.148    31 C    0.136
    11   6 C    3.991 --    10 C    1.563    12 C    1.350    45 H    0.960
    12   6 C    3.941 --    11 C    1.350    13 H    0.973    14 C    0.949
                            31 C    0.455    29 C    0.133
    13   1 H    0.999 --    12 C    0.973
    14   6 C    3.985 --    16 C    1.008    15 H    0.967    31 C    0.966
                            12 C    0.949
    15   1 H    0.997 --    14 C    0.967
    16   6 C    3.977 --    26 C    1.845    14 C    1.008    17 B    0.999
    17   5 B    3.377 --    25 O    1.133    18 O    1.127    16 C    0.999
    18   8 O    2.232 --    17 B    1.127    19 C    0.953
    19   6 C    3.943 --    20 C    0.997    21 C    0.991    18 O    0.953
                            22 C    0.937
    20   6 C    3.994 --    19 C    0.997    47 H    0.985    46 H    0.983
                            48 H    0.982
    21   6 C    3.994 --    19 C    0.991    51 H    0.984    50 H    0.984
                            49 H    0.983
    22   6 C    3.942 --    24 C    0.996    23 C    0.991    25 O    0.953
                            19 C    0.937
    23   6 C    3.995 --    22 C    0.991    52 H    0.984    54 H    0.984
                            53 H    0.983
    24   6 C    3.994 --    22 C    0.996    55 H    0.984    57 H    0.983
                            56 H    0.982
    25   8 O    2.237 --    17 B    1.133    22 C    0.953
    26   6 C    3.986 --    16 C    1.845    27 C    1.008    58 H    0.967
    27   6 C    3.994 --    26 C    1.008    29 C    0.980    28 H    0.971
                            10 C    0.951
    28   1 H    0.998 --    27 C    0.971
    29   6 C    3.973 --    30 C    1.638    27 C    0.980    59 H    0.972
                            10 C    0.148    12 C    0.133
    30   6 C    3.992 --    29 C    1.638    31 C    1.313    60 H    0.962
    31   6 C    3.928 --    30 C    1.313    32 H    0.974    14 C    0.966
                            12 C    0.455    10 C    0.136
    32   1 H    0.999 --    31 C    0.974
    33   1 H    0.997 --     1 C    0.983
    34   1 H    0.998 --     1 C    0.985
    35   1 H    0.997 --     1 C    0.982
    36   1 H    0.997 --     4 C    0.983
    37   1 H    0.998 --     4 C    0.984
    38   1 H    0.998 --     4 C    0.985
    39   1 H    0.998 --     6 C    0.985
    40   1 H    0.997 --     6 C    0.982
    41   1 H    0.997 --     6 C    0.983
    42   1 H    0.998 --     7 C    0.985
    43   1 H    0.997 --     7 C    0.983
    44   1 H    0.998 --     7 C    0.984
    45   1 H    0.999 --    11 C    0.960
    46   1 H    0.997 --    20 C    0.983
    47   1 H    0.998 --    20 C    0.985
    48   1 H    0.997 --    20 C    0.982
    49   1 H    0.997 --    21 C    0.983
    50   1 H    0.998 --    21 C    0.984
    51   1 H    0.998 --    21 C    0.984
    52   1 H    0.998 --    23 C    0.984
    53   1 H    0.997 --    23 C    0.983
    54   1 H    0.998 --    23 C    0.984
    55   1 H    0.998 --    24 C    0.984
    56   1 H    0.997 --    24 C    0.982
    57   1 H    0.997 --    24 C    0.983
    58   1 H    0.998 --    26 C    0.967
    59   1 H    0.999 --    29 C    0.972
    60   1 H    0.999 --    30 C    0.962
 ---------------------------------------------------------------------------

molecular dipole:
                 x           y           z       tot (Debye)
 q only:       -0.243      -0.331       0.285
   full:       -0.070      -0.392       0.184       1.114

           -------------------------------------------------
          | TOTAL ENERGY              -82.287313569602 Eh   |
          | GRADIENT NORM               0.000529039523 Eh/α |
          | HOMO-LUMO GAP               2.000622106363 eV   |
           -------------------------------------------------

 * finished run on 2022/07/09 at 18:33:08.697
