   * xtb version 6.5.0 (homebrew) compiled by 'nhattrup@GPGGRP-SHANNON.CHEME.CMU.EDU' on
          program call               : /opt/homebrew/bin/xtb bvl_bpin2_scan_8-1_xtb.xyz --chrg 0 --uhf 0 --opt --input xcontrol_bvl_bpin2_scan_8-1_xtb

   ID    Z sym.   atoms
    1    6 C      1, 2, 4-7, 10-12, 14, 16, 19-24, 26, 27, 29-31
    2    8 O      3, 8, 18, 25
    3    5 B      9, 17
    4    1 H      13, 15, 28, 32-60
constraining bond 12 31 to    2.3889000 Å, actual value:    2.2739965 Å
constraining bond 10 29 to    2.3889000 Å, actual value:    2.4961869 Å

          :  Hamiltonian                  GFN2-xTB          :
 * total energy  :   -82.0940660 Eh     change       -0.1309792E-07 Eh
 * total energy  :   -82.2234540 Eh     change       -0.1293880E+00 Eh
 * total energy  :   -82.2677267 Eh     change       -0.4427272E-01 Eh
 * total energy  :   -82.2683819 Eh     change       -0.6551628E-03 Eh
 * total energy  :   -82.2691671 Eh     change       -0.7852113E-03 Eh
 * total energy  :   -82.2675166 Eh     change        0.1650502E-02 Eh
 * total energy  :   -82.2695613 Eh     change       -0.2044701E-02 Eh
 * total energy  :   -82.2697859 Eh     change       -0.2246411E-03 Eh
 * total energy  :   -82.2700789 Eh     change       -0.2930167E-03 Eh
 * total energy  :   -82.2702682 Eh     change       -0.1893113E-03 Eh
 * total energy  :   -82.2705495 Eh     change       -0.1553855E-04 Eh
 * total energy  :   -82.2705596 Eh     change       -0.1009726E-04 Eh
 * total energy  :   -82.2705673 Eh     change       -0.7787238E-05 Eh
 * total energy  :   -82.2705899 Eh     change       -0.2256677E-04 Eh
 * total energy  :   -82.2706086 Eh     change       -0.1865766E-04 Eh
 * total energy  :   -82.2706198 Eh     change       -0.1121447E-04 Eh
 * total energy  :   -82.2706277 Eh     change       -0.7918897E-05 Eh
 * total energy  :   -82.2706331 Eh     change       -0.5362570E-05 Eh
 * total energy  :   -82.2706366 Eh     change       -0.3537271E-05 Eh
   *** GEOMETRY OPTIMIZATION CONVERGED AFTER 27 ITERATIONS ***

 final structure:
================
60
 xtb: 6.5.0 (homebrew)
C            3.52630473751597      -37.78589304157003       15.94871359627306
C            3.70898683238080      -38.16059948508853       17.41759903081623
O            3.30502187479741      -37.07133564974664       18.24408080299089
C            2.78423594921560      -39.33790634318130       17.75448154222780
C            5.19633282878207      -38.41076140309916       17.85930651562721
C            5.59789986701215      -39.88040184684453       17.96475024539738
C            6.21146353197930      -37.67528843048390       16.97466855178282
O            5.25615926209292      -37.80912333623563       19.15099598878614
B            4.17767991552522      -36.97500939235708       19.29935103619878
C            3.93659590067145      -36.09256900039942       20.54252668082527
C            4.95518470733947      -35.89039733385987       21.47046853981418
C            4.97233877488989      -35.09305981786713       22.58334781264844
H            5.90407259719170      -34.98765260823891       23.12015498790299
C            3.86832910076312      -34.13530392058465       23.01254745472864
H            4.09022340894326      -33.77983486469073       24.02106494357554
C            2.50297751902667      -34.77582930930834       23.04424615493812
B            1.75721719102240      -34.86171035298124       24.41120427728786
O            2.25779374221594      -34.37098634291052       25.58627531542998
C            1.40891577696051      -34.78383042417213       26.65595808283965
C            1.23752952438113      -33.63316714027340       27.64514657097941
C            2.11580233632371      -35.94979141348237       27.35908006660015
C            0.09327327913853      -35.22412072999439       25.91622504769851
C           -0.95965040995890      -34.11006404783932       25.85565160254903
C           -0.55630632660356      -36.49557879051157       26.45822801495668
O            0.53483865926813      -35.45013456669366       24.57836612177922
C            1.96606430083924      -35.29911626665429       21.94260617637347
C            2.60673109221569      -35.31682037166252       20.59400778574984
H            1.93065767874355      -35.79269773351631       19.88130476862798
C            2.99391048183617      -33.96108202972989       20.03563496645524
C            3.67237545729710      -32.97694239895405       20.72020617971440
C            4.02231088012419      -32.97095122101488       22.04997911830090
H            4.63594369783375      -32.15674504226973       22.40813811409050
H            2.46576353074860      -37.65512409900863       15.74787947712298
H            3.91034985304129      -38.57634040569066       15.30948669894274
H            4.03015574692840      -36.85364306493929       15.71480137386976
H            1.75568226185097      -39.02960715966750       17.58082592049692
H            2.88252927571590      -39.60179853389439       18.80462088075848
H            3.00388182883640      -40.20194559410788       17.13465670621154
H            5.46901968928512      -40.37602592892222       17.00629367964617
H            5.01181689063536      -40.39285471471695       18.72066566182637
H            6.64431845087779      -39.93926508417651       18.25375916329244
H            6.25601305903121      -38.11230405853108       15.98156776707739
H            7.19196321058024      -37.75038736549358       17.43941797381009
H            5.95420371633705      -36.62138872493851       16.90288064796794
H            5.85409619692011      -36.46618565402606       21.27558398868468
H            2.19743007077914      -33.42183174584034       28.10990586594498
H            0.52503115901210      -33.90620904924958       28.41886851405478
H            0.90096475891041      -32.73149509053111       27.14390169651897
H            3.08950985111697      -35.60741014256165       27.70208073777299
H            2.27499764937246      -36.76738588598478       26.66047521202443
H            1.54324579947019      -36.29978729823910       28.21276042935907
H           -1.37625860866721      -33.90817580592554       26.83790418990208
H           -1.75868908349700      -34.42820386977753       25.18999311155638
H           -0.52373446506269      -33.20272635761383       25.44532283220620
H           -0.82225073321198      -36.36658448666713       27.50393497956458
H            0.10562905249565      -37.34902785921536       26.35397911981044
H           -1.45913530893148      -36.69886002981090       25.88775687533450
H            0.99482824998454      -35.76873109846986       22.02011309492210
H            2.88895117542560      -33.86457592575465       18.96573204983552
H            3.94223255224924      -32.09441031003205       20.14831525751764

          :  Hamiltonian                  GFN2-xTB          :
         :: total energy             -82.270636606405 Eh    ::
         :: gradient norm              0.000579389588 Eh/a0 ::
         :: HOMO-LUMO gap              1.071645778253 eV    ::
         :: SCC energy               -83.340479331328 Eh    ::
         :: -> dispersion             -0.062299397682 Eh    ::
         :: repulsion energy           1.068904313387 Eh    ::

    * Orbital Energies and Occupations

         #    Occupation            Energy/Eh            Energy/eV
      -------------------------------------------------------------
         1        2.0000           -0.6860212             -18.6676
       ...           ...                  ...                  ...
        63        2.0000           -0.4357765             -11.8581
        64        2.0000           -0.4307731             -11.7219
        65        2.0000           -0.4214932             -11.4694
        66        2.0000           -0.4191899             -11.4067
        67        2.0000           -0.4165138             -11.3339
        68        2.0000           -0.4137877             -11.2597
        69        2.0000           -0.4006327             -10.9018
        70        2.0000           -0.3987458             -10.8504
        71        2.0000           -0.3957766             -10.7696
        72        2.0000           -0.3953657             -10.7584
        73        2.0000           -0.3905537             -10.6275
        74        2.0000           -0.3658363              -9.9549
        75        2.0000           -0.3247604              -8.8372 (HOMO)
        76                         -0.2853781              -7.7655 (LUMO)
        77                         -0.2172743              -5.9123
        78                         -0.1846396              -5.0243
        79                         -0.1518675              -4.1325
        80                         -0.0944102              -2.5690
        81                         -0.0876854              -2.3860
        82                          0.0107235               0.2918
        83                          0.0141394               0.3848
        84                          0.0296559               0.8070
        85                          0.0304476               0.8285
        86                          0.0576960               1.5700
       ...                                ...                  ...
       144                          0.6762434              18.4015
      -------------------------------------------------------------
                  HL-Gap            0.0393823 Eh            1.0716 eV

     #   Z          covCN         q      C6AA      α(0)
     1   6 C        3.755    -0.117    22.786     6.806
     2   6 C        3.860     0.130    18.441     6.107
     3   8 O        1.638    -0.377    20.424     6.100
     4   6 C        3.755    -0.116    22.770     6.804
     5   6 C        3.858     0.130    18.442     6.107
     6   6 C        3.755    -0.117    22.796     6.808
     7   6 C        3.755    -0.115    22.758     6.802
     8   8 O        1.638    -0.375    20.386     6.095
     9   5 B        2.658     0.429    15.598     6.650
    10   6 C        2.883    -0.082    30.040     8.985
    11   6 C        2.891    -0.033    28.819     8.802
    12   6 C        2.908    -0.033    28.812     8.801
    13   1 H        0.926     0.029     2.596     2.520
    14   6 C        3.860    -0.014    20.788     6.484
    15   1 H        0.924     0.048     2.346     2.395
    16   6 C        2.865    -0.083    30.072     8.989
    17   5 B        2.660     0.430    15.576     6.644
    18   8 O        1.638    -0.371    20.301     6.082
    19   6 C        3.859     0.129    18.459     6.110
    20   6 C        3.755    -0.117    22.797     6.808
    21   6 C        3.755    -0.116    22.778     6.805
    22   6 C        3.860     0.129    18.457     6.110
    23   6 C        3.755    -0.116    22.784     6.806
    24   6 C        3.755    -0.117    22.805     6.809
    25   8 O        1.638    -0.370    20.291     6.080
    26   6 C        2.898    -0.026    28.659     8.777
    27   6 C        3.857    -0.013    20.772     6.482
    28   1 H        0.924     0.049     2.334     2.389
    29   6 C        2.910    -0.026    28.650     8.777
    30   6 C        2.888    -0.033    28.810     8.800
    31   6 C        2.909    -0.027    28.677     8.781
    32   1 H        0.926     0.031     2.574     2.509
    33   1 H        0.925     0.054     2.275     2.359
    34   1 H        0.925     0.039     2.465     2.455
    35   1 H        0.925     0.051     2.310     2.377
    36   1 H        0.925     0.051     2.304     2.374
    37   1 H        0.925     0.043     2.405     2.425
    38   1 H        0.925     0.042     2.428     2.437
    39   1 H        0.925     0.039     2.463     2.454
    40   1 H        0.925     0.052     2.296     2.370
    41   1 H        0.925     0.054     2.276     2.359
    42   1 H        0.925     0.042     2.424     2.435
    43   1 H        0.925     0.051     2.306     2.375
    44   1 H        0.925     0.042     2.419     2.432
    45   1 H        0.925     0.036     2.501     2.473
    46   1 H        0.925     0.054     2.272     2.357
    47   1 H        0.925     0.039     2.456     2.451
    48   1 H        0.925     0.052     2.298     2.371
    49   1 H        0.925     0.052     2.298     2.370
    50   1 H        0.925     0.044     2.399     2.422
    51   1 H        0.925     0.042     2.420     2.433
    52   1 H        0.925     0.042     2.417     2.431
    53   1 H        0.925     0.052     2.291     2.367
    54   1 H        0.925     0.044     2.401     2.423
    55   1 H        0.925     0.040     2.454     2.450
    56   1 H        0.925     0.052     2.295     2.369
    57   1 H        0.925     0.054     2.266     2.354
    58   1 H        0.925     0.037     2.490     2.468
    59   1 H        0.926     0.035     2.523     2.484
    60   1 H        0.925     0.027     2.629     2.535

Wiberg/Mayer (AO) data.
largest (>0.10) Wiberg bond orders for each atom

     #   Z sym  total        # sym  WBO       # sym  WBO       # sym  WBO
 ---------------------------------------------------------------------------
     1   6 C    3.994 --     2 C    0.997    34 H    0.985    33 H    0.983
                            35 H    0.982
     2   6 C    3.944 --     1 C    0.997     4 C    0.990     3 O    0.955
                             5 C    0.937
     3   8 O    2.216 --     9 B    1.110     2 C    0.955
     4   6 C    3.994 --     2 C    0.990    38 H    0.985    37 H    0.984
                            36 H    0.983
     5   6 C    3.943 --     6 C    0.996     7 C    0.990     8 O    0.955
                             2 C    0.937
     6   6 C    3.994 --     5 C    0.996    39 H    0.985    41 H    0.983
                            40 H    0.982
     7   6 C    3.994 --     5 C    0.990    42 H    0.985    44 H    0.984
                            43 H    0.983
     8   8 O    2.220 --     9 B    1.114     5 C    0.955
     9   5 B    3.389 --     8 O    1.114     3 O    1.110    10 C    1.033
    10   6 C    3.938 --    11 C    1.405     9 B    1.033    27 C    0.941
                            29 C    0.259    31 C    0.172
    11   6 C    3.991 --    12 C    1.535    10 C    1.405    45 H    0.960
    12   6 C    3.961 --    11 C    1.535    13 H    0.972    14 C    0.968
                            31 C    0.237    29 C    0.160
    13   1 H    0.999 --    12 C    0.972
    14   6 C    3.993 --    16 C    0.992    31 C    0.981    15 H    0.970
                            12 C    0.968
    15   1 H    0.997 --    14 C    0.970
    16   6 C    3.977 --    26 C    1.856    17 B    1.000    14 C    0.992
    17   5 B    3.376 --    25 O    1.131    18 O    1.128    16 C    1.000
    18   8 O    2.234 --    17 B    1.128    19 C    0.954
    19   6 C    3.943 --    20 C    0.997    21 C    0.991    18 O    0.954
                            22 C    0.936
    20   6 C    3.994 --    19 C    0.997    47 H    0.985    46 H    0.983
                            48 H    0.982
    21   6 C    3.994 --    19 C    0.991    51 H    0.984    50 H    0.984
                            49 H    0.983
    22   6 C    3.943 --    24 C    0.996    23 C    0.990    25 O    0.953
                            19 C    0.936
    23   6 C    3.995 --    22 C    0.990    52 H    0.985    54 H    0.984
                            53 H    0.983
    24   6 C    3.994 --    22 C    0.996    55 H    0.985    57 H    0.983
                            56 H    0.982
    25   8 O    2.235 --    17 B    1.131    22 C    0.953
    26   6 C    3.987 --    16 C    1.856    27 C    1.013    58 H    0.966
    27   6 C    3.993 --    26 C    1.013    29 C    0.983    28 H    0.969
                            10 C    0.941
    28   1 H    0.997 --    27 C    0.969
    29   6 C    3.953 --    30 C    1.471    27 C    0.983    59 H    0.973
                            10 C    0.259    12 C    0.160
    30   6 C    3.993 --    31 C    1.492    29 C    1.471    60 H    0.962
    31   6 C    3.943 --    30 C    1.492    14 C    0.981    32 H    0.973
                            12 C    0.237    10 C    0.172
    32   1 H    0.999 --    31 C    0.973
    33   1 H    0.997 --     1 C    0.983
    34   1 H    0.998 --     1 C    0.985
    35   1 H    0.997 --     1 C    0.982
    36   1 H    0.997 --     4 C    0.983
    37   1 H    0.998 --     4 C    0.984
    38   1 H    0.998 --     4 C    0.985
    39   1 H    0.998 --     6 C    0.985
    40   1 H    0.997 --     6 C    0.982
    41   1 H    0.997 --     6 C    0.983
    42   1 H    0.998 --     7 C    0.985
    43   1 H    0.997 --     7 C    0.983
    44   1 H    0.998 --     7 C    0.984
    45   1 H    0.998 --    11 C    0.960
    46   1 H    0.997 --    20 C    0.983
    47   1 H    0.998 --    20 C    0.985
    48   1 H    0.997 --    20 C    0.982
    49   1 H    0.997 --    21 C    0.983
    50   1 H    0.998 --    21 C    0.984
    51   1 H    0.998 --    21 C    0.984
    52   1 H    0.998 --    23 C    0.985
    53   1 H    0.997 --    23 C    0.983
    54   1 H    0.998 --    23 C    0.984
    55   1 H    0.998 --    24 C    0.985
    56   1 H    0.997 --    24 C    0.982
    57   1 H    0.997 --    24 C    0.983
    58   1 H    0.998 --    26 C    0.966
    59   1 H    0.998 --    29 C    0.973
    60   1 H    0.999 --    30 C    0.962
 ---------------------------------------------------------------------------

molecular dipole:
                 x           y           z       tot (Debye)
 q only:       -0.273      -0.319       0.134
   full:       -0.089      -0.371      -0.007       0.971

           -------------------------------------------------
          | TOTAL ENERGY              -82.270636606405 Eh   |
          | GRADIENT NORM               0.000579389588 Eh/α |
          | HOMO-LUMO GAP               1.071645778253 eV   |
           -------------------------------------------------

 * finished run on 2022/07/09 at 18:33:21.923
