   * xtb version 6.5.0 (homebrew) compiled by 'nhattrup@GPGGRP-SHANNON.CHEME.CMU.EDU' on
          program call               : /opt/homebrew/bin/xtb bvl_bpin2_scan_3-1_xtb.xyz --chrg 0 --uhf 0 --opt --input xcontrol_bvl_bpin2_scan_3-1_xtb

   ID    Z sym.   atoms
    1    6 C      1, 2, 4-7, 10-12, 14, 16, 19-24, 26, 27, 29-31
    2    8 O      3, 8, 18, 25
    3    5 B      9, 17
    4    1 H      13, 15, 28, 32-60
constraining bond 12 31 to    1.8333000 Å, actual value:    1.7159181 Å
constraining bond 10 29 to    2.3889000 Å, actual value:    2.4989870 Å

          :  Hamiltonian                  GFN2-xTB          :
 * total energy  :   -82.1265093 Eh     change       -0.1210182E-08 Eh
 * total energy  :   -82.2538521 Eh     change       -0.1273428E+00 Eh
 * total energy  :   -82.2991799 Eh     change       -0.4532785E-01 Eh
 * total energy  :   -82.2999053 Eh     change       -0.7253354E-03 Eh
 * total energy  :   -82.2998909 Eh     change        0.1435271E-04 Eh
 * total energy  :   -82.2959943 Eh     change        0.3896603E-02 Eh
 * total energy  :   -82.3007962 Eh     change       -0.4801859E-02 Eh
 * total energy  :   -82.3009636 Eh     change       -0.1674723E-03 Eh
 * total energy  :   -82.3012008 Eh     change       -0.2372093E-03 Eh
 * total energy  :   -82.3014898 Eh     change       -0.2889857E-03 Eh
 * total energy  :   -82.3027035 Eh     change       -0.1829310E-04 Eh
 * total energy  :   -82.3027204 Eh     change       -0.1687518E-04 Eh
 * total energy  :   -82.3027401 Eh     change       -0.1972537E-04 Eh
 * total energy  :   -82.3027464 Eh     change       -0.6290890E-05 Eh
 * total energy  :   -82.3027609 Eh     change       -0.1447443E-04 Eh
 * total energy  :   -82.3027583 Eh     change        0.2561230E-05 Eh
 * total energy  :   -82.3027648 Eh     change       -0.6487904E-05 Eh
 * total energy  :   -82.3027676 Eh     change       -0.2745275E-05 Eh
 * total energy  :   -82.3027717 Eh     change       -0.4083395E-05 Eh
   *** GEOMETRY OPTIMIZATION CONVERGED AFTER 49 ITERATIONS ***

 final structure:
================
60
 xtb: 6.5.0 (homebrew)
C            3.35184477659260      -38.01352742427581       16.11256604471068
C            3.62352493640615      -38.24602681874373       17.59729795727169
O            3.23550165671436      -37.09231919798960       18.33955041898971
C            2.74952207802066      -39.40634762778214       18.09107447716170
C            5.13976505803914      -38.41952969285964       17.97479851927887
C            5.58329779098499      -39.86166105859037       18.21105790559438
C            6.08572191598850      -37.76391287636019       16.96042370821915
O            5.25796796090365      -37.68118035501433       19.18957841056406
B            4.16937271650457      -36.85898642175083       19.31396786521696
C            3.99999613775262      -35.80918684117931       20.44469801428113
C            5.02404477429377      -35.56162772536399       21.29578796122364
C            5.08220342891924      -34.63711517957107       22.37644071177133
H            6.03105801281627      -34.52912769469044       22.87933844913735
C            3.89739425291222      -34.00599855473315       23.06942245564004
H            4.11634351261865      -33.71630450410584       24.09402919948922
C            2.55558217921723      -34.64326582991404       22.98984187822395
B            1.77727410109590      -34.83026539430382       24.33018929698047
O            2.27130397912034      -34.45870773620865       25.55130190326268
C            1.40021398499593      -34.95347124505355       26.56778582736827
C            1.24358186292850      -33.90133129799202       27.66346809723869
C            2.07249884246796      -36.19919489789111       27.15990958772875
C            0.08489421123720      -35.28885483421866       25.77509377453649
C           -0.93730100266921      -34.14551181444665       25.80543300944484
C           -0.60411529729689      -36.58680551070978       26.19029973734177
O            0.54089667933031      -35.40301001669595       24.42700530911059
C            2.03857893008478      -35.08752889643382       21.84109606495737
C            2.69356463848385      -35.02965878984593       20.49729725620206
H            2.01931619740930      -35.46314092435004       19.75659949755661
C            3.07382552171318      -33.64346789233689       20.04991484435124
C            3.82876863050016      -32.78741158686110       20.75188209241094
C            4.35862188516561      -32.98828262012143       22.06483271414167
H            5.02466693651585      -32.22713885657668       22.44248836682372
H            2.27893618039229      -37.92407098423998       15.96088553398393
H            3.72103168822312      -38.85147104311419       15.52730655939558
H            3.81763614808629      -37.09634193834102       15.76694793591677
H            1.70560028953698      -39.13783833376046       17.94543040166063
H            2.90834574937474      -39.56963056695723       19.15417857880174
H            2.95984736265903      -40.31927074381386       17.54202226701634
H            5.41750806006251      -40.45781070742360       17.31771899713957
H            5.05061066001056      -40.30344157949116       19.04683550309507
H            6.64449300961634      -39.86889889896550       18.44728974983430
H            6.08061204820503      -38.29805600723351       16.01495430112901
H            7.09310270585382      -37.77793749679102       17.36997037543567
H            5.80361878411771      -36.72636766366966       16.79994708510377
H            5.93992849336837      -36.11449961157106       21.12006067739572
H            2.20351740022226      -33.75822691654707       28.15371032796545
H            0.51817990893928      -34.23308181322967       28.40137637123444
H            0.93128222239454      -32.94731203804646       27.25085751709777
H            3.05110449536102      -35.91566473867122       27.54055690568613
H            2.21787335212023      -36.94960046399899       26.38664586761978
H            1.48420038435718      -36.61525298426546       27.97223418461592
H           -1.36185997046335      -34.02437002006350       26.79752111954546
H           -1.73520866936154      -34.37801229318698       25.10381764135930
H           -0.47160489842581      -33.21637562136482       25.48675218803389
H           -0.87463112226793      -36.54937841309086       27.24210762825653
H            0.03513916998654      -37.44473999551384       26.00996212312572
H           -1.50753542296268      -36.71010455657079       25.59857159366780
H            1.06225212489584      -35.55104769810616       21.87831044107672
H            2.78434705915949      -33.37720075407726       19.04332958550109
H            4.11567149679530      -31.85108600092156       20.28602718309793

          :  Hamiltonian                  GFN2-xTB          :
         :: total energy             -82.302771654170 Eh    ::
         :: gradient norm              0.000687748464 Eh/a0 ::
         :: HOMO-LUMO gap              2.877518618264 eV    ::
         :: SCC energy               -83.378093633247 Eh    ::
         :: -> dispersion             -0.061265508387 Eh    ::
         :: repulsion energy           1.074309336226 Eh    ::

    * Orbital Energies and Occupations

         #    Occupation            Energy/Eh            Energy/eV
      -------------------------------------------------------------
         1        2.0000           -0.6880052             -18.7216
       ...           ...                  ...                  ...
        63        2.0000           -0.4362624             -11.8713
        64        2.0000           -0.4310917             -11.7306
        65        2.0000           -0.4271474             -11.6233
        66        2.0000           -0.4200641             -11.4305
        67        2.0000           -0.4184554             -11.3868
        68        2.0000           -0.4126867             -11.2298
        69        2.0000           -0.4049186             -11.0184
        70        2.0000           -0.3976500             -10.8206
        71        2.0000           -0.3945506             -10.7363
        72        2.0000           -0.3938669             -10.7177
        73        2.0000           -0.3900819             -10.6147
        74        2.0000           -0.3577623              -9.7352
        75        2.0000           -0.3391310              -9.2282 (HOMO)
        76                         -0.2333841              -6.3507 (LUMO)
        77                         -0.2179750              -5.9314
        78                         -0.1896153              -5.1597
        79                         -0.1118373              -3.0432
        80                         -0.0982753              -2.6742
        81                         -0.0679819              -1.8499
        82                          0.0084809               0.2308
        83                          0.0137285               0.3736
        84                          0.0284828               0.7751
        85                          0.0312953               0.8516
        86                          0.0565092               1.5377
       ...                                ...                  ...
       144                          0.6790568              18.4781
      -------------------------------------------------------------
                  HL-Gap            0.1057469 Eh            2.8775 eV

     #   Z          covCN         q      C6AA      α(0)
     1   6 C        3.755    -0.117    22.789     6.807
     2   6 C        3.859     0.129    18.450     6.109
     3   8 O        1.638    -0.373    20.349     6.089
     4   6 C        3.755    -0.116    22.768     6.804
     5   6 C        3.859     0.129    18.448     6.108
     6   6 C        3.755    -0.117    22.795     6.808
     7   6 C        3.755    -0.116    22.767     6.804
     8   8 O        1.638    -0.375    20.388     6.095
     9   5 B        2.659     0.431    15.577     6.645
    10   6 C        2.884    -0.088    30.208     9.011
    11   6 C        2.894    -0.032    28.796     8.798
    12   6 C        3.690    -0.021    21.133     6.579
    13   1 H        0.926     0.032     2.557     2.501
    14   6 C        3.863    -0.007    20.663     6.464
    15   1 H        0.925     0.047     2.358     2.401
    16   6 C        2.863    -0.086    30.144     8.999
    17   5 B        2.662     0.431    15.559     6.639
    18   8 O        1.638    -0.373    20.348     6.089
    19   6 C        3.860     0.129    18.455     6.109
    20   6 C        3.755    -0.117    22.800     6.808
    21   6 C        3.755    -0.116    22.781     6.806
    22   6 C        3.860     0.129    18.455     6.109
    23   6 C        3.755    -0.117    22.786     6.806
    24   6 C        3.755    -0.118    22.808     6.810
    25   8 O        1.638    -0.370    20.281     6.079
    26   6 C        2.900    -0.024    28.608     8.770
    27   6 C        3.862    -0.016    20.822     6.489
    28   1 H        0.924     0.046     2.376     2.411
    29   6 C        2.910    -0.035    28.872     8.811
    30   6 C        2.889    -0.039    28.956     8.822
    31   6 C        3.692    -0.018    21.071     6.568
    32   1 H        0.926     0.032     2.560     2.502
    33   1 H        0.925     0.054     2.274     2.358
    34   1 H        0.925     0.039     2.466     2.456
    35   1 H        0.925     0.051     2.305     2.374
    36   1 H        0.925     0.052     2.300     2.372
    37   1 H        0.925     0.043     2.407     2.426
    38   1 H        0.925     0.041     2.430     2.438
    39   1 H        0.925     0.039     2.461     2.453
    40   1 H        0.925     0.052     2.301     2.372
    41   1 H        0.925     0.053     2.277     2.360
    42   1 H        0.925     0.042     2.425     2.435
    43   1 H        0.925     0.051     2.305     2.374
    44   1 H        0.925     0.043     2.409     2.427
    45   1 H        0.925     0.036     2.507     2.476
    46   1 H        0.925     0.054     2.269     2.356
    47   1 H        0.925     0.040     2.450     2.448
    48   1 H        0.925     0.052     2.295     2.369
    49   1 H        0.925     0.052     2.296     2.370
    50   1 H        0.925     0.044     2.399     2.422
    51   1 H        0.925     0.043     2.415     2.430
    52   1 H        0.925     0.043     2.411     2.428
    53   1 H        0.925     0.053     2.286     2.364
    54   1 H        0.925     0.044     2.398     2.422
    55   1 H        0.925     0.040     2.448     2.447
    56   1 H        0.925     0.052     2.292     2.367
    57   1 H        0.925     0.055     2.261     2.351
    58   1 H        0.925     0.037     2.485     2.465
    59   1 H        0.926     0.027     2.636     2.539
    60   1 H        0.925     0.024     2.668     2.554

Wiberg/Mayer (AO) data.
largest (>0.10) Wiberg bond orders for each atom

     #   Z sym  total        # sym  WBO       # sym  WBO       # sym  WBO
 ---------------------------------------------------------------------------
     1   6 C    3.994 --     2 C    0.996    34 H    0.985    33 H    0.983
                            35 H    0.982
     2   6 C    3.944 --     1 C    0.996     4 C    0.990     3 O    0.955
                             5 C    0.936
     3   8 O    2.226 --     9 B    1.120     2 C    0.955
     4   6 C    3.994 --     2 C    0.990    38 H    0.985    37 H    0.984
                            36 H    0.983
     5   6 C    3.943 --     6 C    0.996     7 C    0.990     8 O    0.955
                             2 C    0.936
     6   6 C    3.994 --     5 C    0.996    39 H    0.985    41 H    0.983
                            40 H    0.982
     7   6 C    3.995 --     5 C    0.990    42 H    0.985    44 H    0.984
                            43 H    0.983
     8   8 O    2.224 --     9 B    1.120     5 C    0.955
     9   5 B    3.380 --     3 O    1.120     8 O    1.120    10 C    1.016
    10   6 C    3.970 --    11 C    1.682     9 B    1.016    27 C    0.955
    11   6 C    3.990 --    10 C    1.682    12 C    1.214    45 H    0.961
    12   6 C    3.937 --    11 C    1.214    13 H    0.975    14 C    0.927
                            31 C    0.651
    13   1 H    0.999 --    12 C    0.975
    14   6 C    3.974 --    16 C    1.025    15 H    0.967    31 C    0.948
                            12 C    0.927
    15   1 H    0.997 --    14 C    0.967
    16   6 C    3.977 --    26 C    1.831    14 C    1.025    17 B    0.998
    17   5 B    3.376 --    25 O    1.134    18 O    1.127    16 C    0.998
    18   8 O    2.232 --    17 B    1.127    19 C    0.952
    19   6 C    3.943 --    20 C    0.997    21 C    0.991    18 O    0.952
                            22 C    0.937
    20   6 C    3.994 --    19 C    0.997    47 H    0.984    46 H    0.983
                            48 H    0.982
    21   6 C    3.994 --    19 C    0.991    51 H    0.984    50 H    0.984
                            49 H    0.983
    22   6 C    3.942 --    24 C    0.996    23 C    0.991    25 O    0.952
                            19 C    0.937
    23   6 C    3.995 --    22 C    0.991    52 H    0.984    54 H    0.984
                            53 H    0.983
    24   6 C    3.994 --    22 C    0.996    55 H    0.984    57 H    0.983
                            56 H    0.982
    25   8 O    2.237 --    17 B    1.134    22 C    0.952
    26   6 C    3.986 --    16 C    1.831    27 C    1.003    58 H    0.967
    27   6 C    3.994 --    26 C    1.003    29 C    0.981    28 H    0.971
                            10 C    0.955
    28   1 H    0.998 --    27 C    0.971
    29   6 C    3.983 --    30 C    1.762    27 C    0.981    59 H    0.971
    30   6 C    3.991 --    29 C    1.762    31 C    1.182    60 H    0.963
    31   6 C    3.929 --    30 C    1.182    32 H    0.975    14 C    0.948
                            12 C    0.651
    32   1 H    0.999 --    31 C    0.975
    33   1 H    0.997 --     1 C    0.983
    34   1 H    0.998 --     1 C    0.985
    35   1 H    0.997 --     1 C    0.982
    36   1 H    0.997 --     4 C    0.983
    37   1 H    0.998 --     4 C    0.984
    38   1 H    0.998 --     4 C    0.985
    39   1 H    0.998 --     6 C    0.985
    40   1 H    0.997 --     6 C    0.982
    41   1 H    0.997 --     6 C    0.983
    42   1 H    0.998 --     7 C    0.985
    43   1 H    0.997 --     7 C    0.983
    44   1 H    0.998 --     7 C    0.984
    45   1 H    0.999 --    11 C    0.961
    46   1 H    0.997 --    20 C    0.983
    47   1 H    0.998 --    20 C    0.984
    48   1 H    0.997 --    20 C    0.982
    49   1 H    0.997 --    21 C    0.983
    50   1 H    0.998 --    21 C    0.984
    51   1 H    0.998 --    21 C    0.984
    52   1 H    0.998 --    23 C    0.984
    53   1 H    0.997 --    23 C    0.983
    54   1 H    0.998 --    23 C    0.984
    55   1 H    0.998 --    24 C    0.984
    56   1 H    0.997 --    24 C    0.982
    57   1 H    0.997 --    24 C    0.983
    58   1 H    0.998 --    26 C    0.967
    59   1 H    0.999 --    29 C    0.971
    60   1 H    0.999 --    30 C    0.963
 ---------------------------------------------------------------------------

molecular dipole:
                 x           y           z       tot (Debye)
 q only:       -0.242      -0.439       0.321
   full:       -0.126      -0.533       0.290       1.574

           -------------------------------------------------
          | TOTAL ENERGY              -82.302771654170 Eh   |
          | GRADIENT NORM               0.000687748464 Eh/α |
          | HOMO-LUMO GAP               2.877518618264 eV   |
           -------------------------------------------------

 * finished run on 2022/07/09 at 18:33:02.056
