   * xtb version 6.5.0 (homebrew) compiled by 'nhattrup@GPGGRP-SHANNON.CHEME.CMU.EDU' on
          program call               : /opt/homebrew/bin/xtb bvl_bpin2_scan_1-8_xtb.xyz --chrg 0 --uhf 0 --opt --input xcontrol_bvl_bpin2_scan_1-8_xtb

   ID    Z sym.   atoms
    1    6 C      1, 2, 4-7, 10-12, 14, 16, 19-24, 26, 27, 29-31
    2    8 O      3, 8, 18, 25
    3    5 B      9, 17
    4    1 H      13, 15, 28, 32-60
constraining bond 12 31 to    1.6111000 Å, actual value:    1.5060787 Å
constraining bond 10 29 to    1.6111000 Å, actual value:    1.7252230 Å

          :  Hamiltonian                  GFN2-xTB          :
 * total energy  :   -82.1188924 Eh     change       -0.1512589E-08 Eh
 * total energy  :   -82.2455938 Eh     change       -0.1267014E+00 Eh
 * total energy  :   -82.2912835 Eh     change       -0.4568973E-01 Eh
 * total energy  :   -82.2918900 Eh     change       -0.6065243E-03 Eh
 * total energy  :   -82.2905952 Eh     change        0.1294789E-02 Eh
 * total energy  :   -82.2919120 Eh     change       -0.1316782E-02 Eh
 * total energy  :   -82.2921490 Eh     change       -0.2369463E-03 Eh
 * total energy  :   -82.2922777 Eh     change       -0.1287367E-03 Eh
 * total energy  :   -82.2922906 Eh     change       -0.1291689E-04 Eh
 * total energy  :   -82.2923162 Eh     change       -0.2561121E-04 Eh
 * total energy  :   -82.2923204 Eh     change       -0.4124913E-05 Eh
 * total energy  :   -82.2923260 Eh     change       -0.5624333E-05 Eh
 * total energy  :   -82.2923298 Eh     change       -0.3820302E-05 Eh
 * total energy  :   -82.2923378 Eh     change       -0.8022029E-05 Eh
 * total energy  :   -82.2923405 Eh     change       -0.2654714E-05 Eh
   *** GEOMETRY OPTIMIZATION CONVERGED AFTER 15 ITERATIONS ***

 final structure:
================
60
 xtb: 6.5.0 (homebrew)
C            3.48706430680796      -37.73551616300347       15.89539571343078
C            3.72150381620255      -38.13360271297680       17.35073941003023
O            3.24830882328965      -37.09455024362487       18.20925166616568
C            2.89541977847909      -39.38592151118813       17.66835878561887
C            5.23165419017098      -38.27455410700856       17.76482774173197
C            5.74188773125561      -39.70982793113999       17.86142135384411
C            6.17683822804062      -37.46508227446667       16.86852827335235
O            5.27060027588372      -37.66619042471600       19.05785394144902
B            4.14156170776670      -36.92297336181821       19.22867499861798
C            3.89410733287248      -35.95157567632065       20.44095438233910
C            4.92426190791920      -35.87774170816942       21.41199611612640
C            4.97502230974422      -34.89008567300328       22.41264736281920
H            5.91898367031139      -34.82957534880974       22.94625881500187
C            3.80826985351666      -34.27915748907301       23.12752277377189
H            4.06007821878180      -33.88009129349247       24.10361391242559
C            2.45951464668809      -34.90601735494153       23.14241998465750
B            1.70433967977404      -34.91140997855354       24.50576549332699
O            2.20657552494307      -34.37759329963108       25.66217590843121
C            1.33781285501224      -34.72114132914071       26.74047027657016
C            1.18830575053754      -33.52605328958340       27.67910464558098
C            2.00600519635519      -35.87483885471399       27.49956911889446
C            0.01762429851619      -35.15746758434604       26.00758840719723
C           -0.99982865062749      -34.01632779312038       25.88169892241823
C           -0.67594622230137      -36.38024174773460       26.60377868566977
O            0.46591738950080      -35.46191720034260       24.68790829669513
C            1.89826739439668      -35.47264506388456       22.07132731098897
C            2.44740773652129      -35.58910961608127       20.71367755142845
H            1.76888082030582      -36.08587931436035       20.02981550548821
C            3.25555425051263      -34.52096787379890       20.05184756635930
C            3.83032441953180      -33.40000837474432       20.68182785008500
C            4.34368628951707      -33.46518898029375       21.99298043290454
H            4.93590254936552      -32.60584061472058       22.29353655293692
H            2.41664039637653      -37.67977019822669       15.71349628717328
H            3.91837651952835      -38.47759637983206       15.22913224851200
H            3.91590765349834      -36.76227655591983       15.67974888351304
H            1.84382112909586      -39.15529553113149       17.51380731766046
H            3.02732101213975      -39.67056184021740       18.70917432376282
H            3.17439714539881      -40.21246869082258       17.02192848879351
H            5.63915603178353      -40.20895293322457       16.90173316269095
H            5.20469323982124      -40.26776451185950       18.62123024440165
H            6.79287438583964      -39.69100284559337       18.13832691123260
H            6.23015369314859      -37.88792431062844       15.86994479411577
H            7.16905144375445      -37.48022720785581       17.31347087544646
H            5.85026326072047      -36.42961881024441       16.81399060321586
H            5.85998366833482      -36.34160887831401       21.13255436359984
H            2.14910055956861      -33.32078878639928       28.14472777519532
H            0.46175975151342      -33.74856328457657       28.45600836441398
H            0.88016578099141      -32.63743878967113       27.13791615430387
H            2.98772313007811      -35.54632830287646       27.83320356373849
H            2.14417417983214      -36.72758276786504       26.83960803016144
H            1.41862761340391      -36.16861358600725       28.36430176240468
H           -1.41969269567118      -33.75607650810213       26.84871492375396
H           -1.80154224900111      -34.34140710584138       25.22263810427031
H           -0.53206190932100      -33.14295511005761       25.43439458403255
H           -0.94308548864254      -36.19260927615921       27.64021466881024
H           -0.04139710639631      -37.25847424412056       26.54489651722552
H           -1.58170807243865      -36.58109336082028       26.03712457690428
H            0.91715581375993      -35.91059318420258       22.19637041187469
H            3.05734615687985      -34.40683553245869       18.99127529334099
H            4.23855887641122      -32.63355727816879       20.03632900909340

          :  Hamiltonian                  GFN2-xTB          :
         :: total energy             -82.292340485671 Eh    ::
         :: gradient norm              0.000995113329 Eh/a0 ::
         :: HOMO-LUMO gap              2.222708952245 eV    ::
         :: SCC energy               -83.363469934170 Eh    ::
         :: -> dispersion             -0.061024017432 Eh    ::
         :: repulsion energy           1.070379233602 Eh    ::

    * Orbital Energies and Occupations

         #    Occupation            Energy/Eh            Energy/eV
      -------------------------------------------------------------
         1        2.0000           -0.6941477             -18.8887
       ...           ...                  ...                  ...
        63        2.0000           -0.4365628             -11.8795
        64        2.0000           -0.4338873             -11.8067
        65        2.0000           -0.4293155             -11.6823
        66        2.0000           -0.4242385             -11.5441
        67        2.0000           -0.4182041             -11.3799
        68        2.0000           -0.4132613             -11.2454
        69        2.0000           -0.4088132             -11.1244
        70        2.0000           -0.4023130             -10.9475
        71        2.0000           -0.3998047             -10.8792
        72        2.0000           -0.3949834             -10.7480
        73        2.0000           -0.3808274             -10.3628
        74        2.0000           -0.3761487             -10.2355
        75        2.0000           -0.3091855              -8.4134 (HOMO)
        76                         -0.2275024              -6.1907 (LUMO)
        77                         -0.2209646              -6.0128
        78                         -0.1511890              -4.1141
        79                         -0.1015006              -2.7620
        80                         -0.0343494              -0.9347
        81                          0.0006483               0.0176
        82                          0.0117999               0.3211
        83                          0.0171067               0.4655
        84                          0.0240691               0.6550
        85                          0.0309196               0.8414
        86                          0.0530276               1.4430
       ...                                ...                  ...
       144                          0.6983074              19.0019
      -------------------------------------------------------------
                  HL-Gap            0.0816831 Eh            2.2227 eV

     #   Z          covCN         q      C6AA      α(0)
     1   6 C        3.755    -0.117    22.805     6.809
     2   6 C        3.859     0.129    18.448     6.108
     3   8 O        1.638    -0.374    20.369     6.092
     4   6 C        3.755    -0.117    22.791     6.807
     5   6 C        3.861     0.129    18.453     6.109
     6   6 C        3.755    -0.118    22.822     6.812
     7   6 C        3.755    -0.116    22.785     6.806
     8   8 O        1.638    -0.369    20.265     6.077
     9   5 B        2.659     0.441    15.462     6.621
    10   6 C        3.823    -0.050    21.453     6.591
    11   6 C        2.894    -0.073    29.819     8.953
    12   6 C        3.850    -0.001    20.564     6.450
    13   1 H        0.925     0.028     2.608     2.526
    14   6 C        3.865    -0.026    20.990     6.515
    15   1 H        0.925     0.042     2.428     2.437
    16   6 C        2.863    -0.085    30.126     8.997
    17   5 B        2.663     0.431    15.555     6.638
    18   8 O        1.638    -0.374    20.353     6.090
    19   6 C        3.860     0.129    18.452     6.109
    20   6 C        3.755    -0.117    22.796     6.808
    21   6 C        3.755    -0.116    22.776     6.805
    22   6 C        3.860     0.129    18.452     6.109
    23   6 C        3.755    -0.116    22.783     6.806
    24   6 C        3.755    -0.117    22.802     6.809
    25   8 O        1.638    -0.372    20.324     6.085
    26   6 C        2.896    -0.027    28.671     8.779
    27   6 C        3.862    -0.023    20.949     6.509
    28   1 H        0.925     0.040     2.450     2.448
    29   6 C        3.853     0.002    20.517     6.442
    30   6 C        2.890    -0.079    29.972     8.976
    31   6 C        3.852     0.000    20.542     6.446
    32   1 H        0.925     0.028     2.610     2.527
    33   1 H        0.925     0.055     2.252     2.347
    34   1 H        0.925     0.041     2.437     2.441
    35   1 H        0.925     0.052     2.294     2.369
    36   1 H        0.925     0.053     2.279     2.361
    37   1 H        0.925     0.045     2.388     2.416
    38   1 H        0.925     0.044     2.400     2.423
    39   1 H        0.925     0.041     2.430     2.438
    40   1 H        0.925     0.053     2.278     2.360
    41   1 H        0.925     0.056     2.247     2.344
    42   1 H        0.925     0.044     2.395     2.420
    43   1 H        0.925     0.054     2.274     2.358
    44   1 H        0.925     0.044     2.400     2.423
    45   1 H        0.926     0.027     2.632     2.537
    46   1 H        0.925     0.054     2.274     2.358
    47   1 H        0.925     0.039     2.459     2.452
    48   1 H        0.925     0.052     2.296     2.370
    49   1 H        0.925     0.052     2.300     2.372
    50   1 H        0.925     0.044     2.400     2.423
    51   1 H        0.925     0.042     2.423     2.434
    52   1 H        0.925     0.042     2.420     2.432
    53   1 H        0.925     0.052     2.294     2.368
    54   1 H        0.925     0.044     2.397     2.421
    55   1 H        0.925     0.039     2.456     2.451
    56   1 H        0.925     0.052     2.296     2.370
    57   1 H        0.925     0.054     2.269     2.356
    58   1 H        0.925     0.038     2.479     2.462
    59   1 H        0.925     0.033     2.551     2.498
    60   1 H        0.925     0.015     2.818     2.625

Wiberg/Mayer (AO) data.
largest (>0.10) Wiberg bond orders for each atom

     #   Z sym  total        # sym  WBO       # sym  WBO       # sym  WBO
 ---------------------------------------------------------------------------
     1   6 C    3.994 --     2 C    0.997    34 H    0.984    33 H    0.982
                            35 H    0.982
     2   6 C    3.941 --     1 C    0.997     4 C    0.991     3 O    0.950
                             5 C    0.937
     3   8 O    2.232 --     9 B    1.134     2 C    0.950
     4   6 C    3.994 --     2 C    0.991    38 H    0.984    37 H    0.984
                            36 H    0.983
     5   6 C    3.940 --     6 C    0.997     7 C    0.991     8 O    0.948
                             2 C    0.937
     6   6 C    3.994 --     5 C    0.997    39 H    0.984    41 H    0.982
                            40 H    0.982
     7   6 C    3.995 --     5 C    0.991    42 H    0.984    44 H    0.984
                            43 H    0.982
     8   8 O    2.241 --     9 B    1.144     5 C    0.948
     9   5 B    3.375 --     8 O    1.144     3 O    1.134    10 C    0.984
    10   6 C    3.937 --    11 C    1.288     9 B    0.984    27 C    0.867
                            29 C    0.636
    11   6 C    3.972 --    12 C    1.320    10 C    1.288    45 H    0.966
                            30 C    0.264
    12   6 C    3.957 --    11 C    1.320    13 H    0.971    14 C    0.907
                            31 C    0.646
    13   1 H    0.999 --    12 C    0.971
    14   6 C    3.945 --    16 C    1.017    15 H    0.968    31 C    0.916
                            12 C    0.907
    15   1 H    0.998 --    14 C    0.968
    16   6 C    3.978 --    26 C    1.813    14 C    1.017    17 B    1.002
    17   5 B    3.377 --    25 O    1.127    18 O    1.124    16 C    1.002
    18   8 O    2.229 --    17 B    1.124    19 C    0.954
    19   6 C    3.943 --    20 C    0.997    21 C    0.990    18 O    0.954
                            22 C    0.937
    20   6 C    3.994 --    19 C    0.997    47 H    0.985    46 H    0.983
                            48 H    0.982
    21   6 C    3.994 --    19 C    0.990    51 H    0.985    50 H    0.984
                            49 H    0.983
    22   6 C    3.943 --    24 C    0.996    23 C    0.990    25 O    0.954
                            19 C    0.937
    23   6 C    3.995 --    22 C    0.990    52 H    0.985    54 H    0.984
                            53 H    0.983
    24   6 C    3.994 --    22 C    0.996    55 H    0.985    57 H    0.983
                            56 H    0.982
    25   8 O    2.231 --    17 B    1.127    22 C    0.954
    26   6 C    3.989 --    16 C    1.813    27 C    1.050    58 H    0.965
    27   6 C    3.945 --    26 C    1.050    28 H    0.969    29 C    0.910
                            10 C    0.867
    28   1 H    0.998 --    27 C    0.969
    29   6 C    3.954 --    30 C    1.307    59 H    0.970    27 C    0.910
                            10 C    0.636
    30   6 C    3.960 --    29 C    1.307    31 C    1.305    60 H    0.968
                            11 C    0.264
    31   6 C    3.954 --    30 C    1.305    32 H    0.971    14 C    0.916
                            12 C    0.646
    32   1 H    0.999 --    31 C    0.971
    33   1 H    0.997 --     1 C    0.982
    34   1 H    0.998 --     1 C    0.984
    35   1 H    0.997 --     1 C    0.982
    36   1 H    0.997 --     4 C    0.983
    37   1 H    0.998 --     4 C    0.984
    38   1 H    0.998 --     4 C    0.984
    39   1 H    0.998 --     6 C    0.984
    40   1 H    0.997 --     6 C    0.982
    41   1 H    0.997 --     6 C    0.982
    42   1 H    0.998 --     7 C    0.984
    43   1 H    0.997 --     7 C    0.982
    44   1 H    0.998 --     7 C    0.984
    45   1 H    0.999 --    11 C    0.966
    46   1 H    0.997 --    20 C    0.983
    47   1 H    0.998 --    20 C    0.985
    48   1 H    0.997 --    20 C    0.982
    49   1 H    0.997 --    21 C    0.983
    50   1 H    0.998 --    21 C    0.984
    51   1 H    0.998 --    21 C    0.985
    52   1 H    0.998 --    23 C    0.985
    53   1 H    0.997 --    23 C    0.983
    54   1 H    0.998 --    23 C    0.984
    55   1 H    0.998 --    24 C    0.985
    56   1 H    0.997 --    24 C    0.982
    57   1 H    0.997 --    24 C    0.983
    58   1 H    0.998 --    26 C    0.965
    59   1 H    0.998 --    29 C    0.970
    60   1 H    1.000 --    30 C    0.968
 ---------------------------------------------------------------------------

molecular dipole:
                 x           y           z       tot (Debye)
 q only:       -0.183      -0.585      -0.124
   full:       -0.065      -0.644      -0.192       1.717

           -------------------------------------------------
          | TOTAL ENERGY              -82.292340485671 Eh   |
          | GRADIENT NORM               0.000995113329 Eh/α |
          | HOMO-LUMO GAP               2.222708952245 eV   |
           -------------------------------------------------

 * finished run on 2022/07/09 at 18:33:24.054
