   * xtb version 6.5.0 (homebrew) compiled by 'nhattrup@GPGGRP-SHANNON.CHEME.CMU.EDU' on
          program call               : /opt/homebrew/bin/xtb bvl_bpin2_scan_2-5_xtb.xyz --chrg 0 --uhf 0 --opt --input xcontrol_bvl_bpin2_scan_2-5_xtb

   ID    Z sym.   atoms
    1    6 C      1, 2, 4-7, 10-12, 14, 16, 19-24, 26, 27, 29-31
    2    8 O      3, 8, 18, 25
    3    5 B      9, 17
    4    1 H      13, 15, 28, 32-60
constraining bond 12 31 to    1.7222000 Å, actual value:    1.6099453 Å
constraining bond 10 29 to    1.9444000 Å, actual value:    2.0587841 Å

          :  Hamiltonian                  GFN2-xTB          :
 * total energy  :   -82.1263949 Eh     change       -0.1204711E-08 Eh
 * total energy  :   -82.2569730 Eh     change       -0.1305781E+00 Eh
 * total energy  :   -82.3004714 Eh     change       -0.4349834E-01 Eh
 * total energy  :   -82.3011933 Eh     change       -0.7219626E-03 Eh
 * total energy  :   -82.2957568 Eh     change        0.5436501E-02 Eh
 * total energy  :   -82.3017094 Eh     change       -0.5952561E-02 Eh
 * total energy  :   -82.3018528 Eh     change       -0.1434188E-03 Eh
 * total energy  :   -82.3019741 Eh     change       -0.1212703E-03 Eh
 * total energy  :   -82.3021053 Eh     change       -0.1311781E-03 Eh
 * total energy  :   -82.3022067 Eh     change       -0.1014971E-03 Eh
 * total energy  :   -82.3025855 Eh     change       -0.8401774E-05 Eh
 * total energy  :   -82.3025917 Eh     change       -0.6292425E-05 Eh
 * total energy  :   -82.3025973 Eh     change       -0.5580920E-05 Eh
 * total energy  :   -82.3026035 Eh     change       -0.6224761E-05 Eh
 * total energy  :   -82.3026109 Eh     change       -0.7338231E-05 Eh
 * total energy  :   -82.3026187 Eh     change       -0.7763171E-05 Eh
 * total energy  :   -82.3026255 Eh     change       -0.6841136E-05 Eh
 * total energy  :   -82.3026307 Eh     change       -0.5243364E-05 Eh
 * total energy  :   -82.3026317 Eh     change       -0.1008418E-05 Eh
   *** GEOMETRY OPTIMIZATION CONVERGED AFTER 44 ITERATIONS ***

 final structure:
================
60
 xtb: 6.5.0 (homebrew)
C            3.45478575039086      -37.74304639061798       15.93268122989150
C            3.71205273586580      -38.16335355154119       17.37817856130457
O            3.24114905766093      -37.14521415700457       18.25976221160745
C            2.89841010928942      -39.42705910373513       17.68488841494585
C            5.22936733269216      -38.30048599141904       17.76891920846693
C            5.74774581889601      -39.73506757327743       17.84197720571748
C            6.15751759515937      -37.47787390427298       16.86627220440625
O            5.28525367000628      -37.70968301744803       19.06743051726500
B            4.14706707379408      -36.98219170483190       19.27225559312818
C            3.90454807288968      -36.06751638669234       20.51187979337926
C            4.93336497441797      -35.88505163095638       21.40716837881269
C            4.98487898692612      -34.93695394878583       22.45321928971529
H            5.93011327174609      -34.85788387530959       22.97424610414312
C            3.82086566430869      -34.26996306500489       23.12717168849363
H            4.06407868834016      -33.88760494431541       24.11395219459253
C            2.46298461441668      -34.87766794414922       23.12713074216972
B            1.69840760227054      -34.89701337125344       24.48749437274440
O            2.20082129826635      -34.37146049351987       25.64656897836135
C            1.33478979511851      -34.72362315372108       26.72446155506872
C            1.18001794354752      -33.53061617214711       27.66499418356905
C            2.01271932083873      -35.87386540287174       27.47994440332901
C            0.01624967128572      -35.16621422540185       25.99122629153681
C           -1.01398661419141      -34.03511839031511       25.88056370830937
C           -0.66170831244191      -36.40323344017772       26.57631327871579
O            0.46294499279915      -35.45215911720153       24.66601010098934
C            1.91712254355244      -35.41854360149178       22.03723125593572
C            2.51932821678964      -35.50809409283326       20.68484054446201
H            1.82957341579963      -35.98880606262379       19.99385449834929
C            3.16440504019087      -34.32568353408077       20.05673590318163
C            3.86217147798856      -33.33871071091358       20.68712959286983
C            4.33651151651264      -33.40310627792572       22.02093558468878
H            4.97322110156747      -32.58607695023179       22.33482494760435
H            2.38148645343562      -37.68570266186785       15.76887444724882
H            3.87632937407089      -38.47421808352471       15.24830187623295
H            3.87885815715219      -36.76591121442102       15.72536203933418
H            1.84416284326197      -39.20221354737814       17.53974996464035
H            3.03890074072767      -39.72194930136310       18.72175217622917
H            3.17889959795007      -40.24455608821169       17.02770550215146
H            5.63424950610027      -40.22586846776519       16.87916857237245
H            5.22362794900770      -40.30288522236791       18.60373659777793
H            6.80247687570782      -39.71450712099534       18.10457548214331
H            6.19835003673302      -37.89131493080320       15.86305825040372
H            7.15635303781912      -37.49175373279722       17.29634382038607
H            5.82498078438486      -36.44368484766763       16.82627824867769
H            5.87538377285115      -36.34761344494284       21.14114107421937
H            2.14047876693282      -33.32149978850396       28.12959944602555
H            0.45541916731353      -33.75678806866384       28.44252334070827
H            0.86764520072368      -32.64283630374099       27.12481785455290
H            2.99075438942592      -35.53689985536601       27.81598930707588
H            2.16035711539799      -36.72266340025606       26.81696626246967
H            1.42742817330092      -36.17680104278190       28.34286448257147
H           -1.43159134223072      -33.78734847574692       26.85182514403248
H           -1.81585039873409      -34.36280321482138       25.22303568607548
H           -0.55796163082457      -33.15291228050146       25.43855370029354
H           -0.93367958319417      -36.22810822246454       27.61371847284741
H           -0.01528153352484      -37.27235474140236       26.51181324348513
H           -1.56355772063532      -36.61200528932467       26.00629259551384
H            0.93002057589621      -35.85030675315076       22.13099505420848
H            2.99729070062797      -34.22528863771715       18.99243697428559
H            4.29139656363026      -32.55728307537824       20.07206784627019

          :  Hamiltonian                  GFN2-xTB          :
         :: total energy             -82.302631747488 Eh    ::
         :: gradient norm              0.000229600182 Eh/a0 ::
         :: HOMO-LUMO gap              2.980863431528 eV    ::
         :: SCC energy               -83.380292314949 Eh    ::
         :: -> dispersion             -0.061097931689 Eh    ::
         :: repulsion energy           1.076962526939 Eh    ::

    * Orbital Energies and Occupations

         #    Occupation            Energy/Eh            Energy/eV
      -------------------------------------------------------------
         1        2.0000           -0.6891082             -18.7516
       ...           ...                  ...                  ...
        63        2.0000           -0.4361852             -11.8692
        64        2.0000           -0.4325599             -11.7706
        65        2.0000           -0.4313281             -11.7370
        66        2.0000           -0.4212431             -11.4626
        67        2.0000           -0.4194438             -11.4136
        68        2.0000           -0.4145855             -11.2814
        69        2.0000           -0.4076870             -11.0937
        70        2.0000           -0.3982726             -10.8376
        71        2.0000           -0.3973441             -10.8123
        72        2.0000           -0.3950588             -10.7501
        73        2.0000           -0.3820779             -10.3969
        74        2.0000           -0.3614260              -9.8349
        75        2.0000           -0.3342033              -9.0941 (HOMO)
        76                         -0.2246586              -6.1133 (LUMO)
        77                         -0.2089106              -5.6847
        78                         -0.1750684              -4.7639
        79                         -0.1056246              -2.8742
        80                         -0.0912170              -2.4821
        81                         -0.0302623              -0.8235
        82                          0.0078560               0.2138
        83                          0.0092234               0.2510
        84                          0.0277626               0.7555
        85                          0.0290175               0.7896
        86                          0.0571154               1.5542
       ...                                ...                  ...
       144                          0.6958302              18.9345
      -------------------------------------------------------------
                  HL-Gap            0.1095447 Eh            2.9809 eV

     #   Z          covCN         q      C6AA      α(0)
     1   6 C        3.755    -0.117    22.793     6.807
     2   6 C        3.858     0.129    18.449     6.109
     3   8 O        1.638    -0.375    20.371     6.092
     4   6 C        3.755    -0.116    22.779     6.805
     5   6 C        3.859     0.129    18.450     6.109
     6   6 C        3.755    -0.118    22.808     6.810
     7   6 C        3.755    -0.116    22.772     6.804
     8   8 O        1.638    -0.372    20.333     6.087
     9   5 B        2.658     0.435    15.532     6.636
    10   6 C        3.464    -0.069    24.184     7.397
    11   6 C        2.893    -0.054    29.330     8.879
    12   6 C        3.801    -0.013    20.813     6.495
    13   1 H        0.925     0.030     2.584     2.514
    14   6 C        3.865    -0.016    20.817     6.488
    15   1 H        0.925     0.044     2.397     2.421
    16   6 C        2.863    -0.083    30.082     8.990
    17   5 B        2.661     0.432    15.557     6.639
    18   8 O        1.638    -0.373    20.336     6.087
    19   6 C        3.859     0.129    18.455     6.109
    20   6 C        3.755    -0.117    22.799     6.808
    21   6 C        3.755    -0.116    22.779     6.805
    22   6 C        3.860     0.129    18.456     6.110
    23   6 C        3.755    -0.116    22.785     6.806
    24   6 C        3.755    -0.118    22.806     6.809
    25   8 O        1.638    -0.370    20.288     6.080
    26   6 C        2.896    -0.027    28.664     8.778
    27   6 C        3.864    -0.015    20.793     6.485
    28   1 H        0.925     0.043     2.403     2.424
    29   6 C        3.491    -0.016    22.636     7.082
    30   6 C        2.888    -0.061    29.504     8.905
    31   6 C        3.803    -0.011    20.765     6.488
    32   1 H        0.925     0.030     2.583     2.513
    33   1 H        0.925     0.054     2.266     2.354
    34   1 H        0.925     0.040     2.453     2.449
    35   1 H        0.925     0.051     2.304     2.374
    36   1 H        0.925     0.052     2.292     2.368
    37   1 H        0.925     0.044     2.398     2.422
    38   1 H        0.925     0.042     2.417     2.431
    39   1 H        0.925     0.040     2.447     2.446
    40   1 H        0.925     0.052     2.292     2.367
    41   1 H        0.925     0.055     2.263     2.353
    42   1 H        0.925     0.043     2.412     2.429
    43   1 H        0.925     0.052     2.290     2.366
    44   1 H        0.925     0.043     2.406     2.426
    45   1 H        0.925     0.031     2.575     2.510
    46   1 H        0.925     0.054     2.270     2.356
    47   1 H        0.925     0.040     2.453     2.449
    48   1 H        0.925     0.052     2.295     2.369
    49   1 H        0.925     0.052     2.296     2.370
    50   1 H        0.925     0.044     2.398     2.422
    51   1 H        0.925     0.042     2.417     2.431
    52   1 H        0.925     0.043     2.414     2.430
    53   1 H        0.925     0.053     2.288     2.365
    54   1 H        0.925     0.044     2.396     2.421
    55   1 H        0.925     0.040     2.450     2.448
    56   1 H        0.925     0.052     2.294     2.368
    57   1 H        0.925     0.055     2.263     2.352
    58   1 H        0.925     0.037     2.484     2.465
    59   1 H        0.925     0.030     2.591     2.517
    60   1 H        0.925     0.019     2.750     2.593

Wiberg/Mayer (AO) data.
largest (>0.10) Wiberg bond orders for each atom

     #   Z sym  total        # sym  WBO       # sym  WBO       # sym  WBO
 ---------------------------------------------------------------------------
     1   6 C    3.994 --     2 C    0.997    34 H    0.985    33 H    0.983
                            35 H    0.982
     2   6 C    3.943 --     1 C    0.997     4 C    0.991     3 O    0.953
                             5 C    0.936
     3   8 O    2.227 --     9 B    1.125     2 C    0.953
     4   6 C    3.994 --     2 C    0.991    38 H    0.984    37 H    0.984
                            36 H    0.983
     5   6 C    3.942 --     6 C    0.997     7 C    0.991     8 O    0.952
                             2 C    0.936
     6   6 C    3.994 --     5 C    0.997    39 H    0.984    41 H    0.983
                            40 H    0.982
     7   6 C    3.995 --     5 C    0.991    42 H    0.984    44 H    0.984
                            43 H    0.983
     8   8 O    2.231 --     9 B    1.130     5 C    0.952
     9   5 B    3.379 --     8 O    1.130     3 O    1.125    10 C    1.004
    10   6 C    3.951 --    11 C    1.523     9 B    1.004    27 C    0.924
                            29 C    0.298
    11   6 C    3.985 --    10 C    1.523    12 C    1.276    45 H    0.963
                            30 C    0.103
    12   6 C    3.950 --    11 C    1.276    13 H    0.973    14 C    0.925
                            31 C    0.628
    13   1 H    0.999 --    12 C    0.973
    14   6 C    3.964 --    16 C    1.017    15 H    0.968    31 C    0.937
                            12 C    0.925
    15   1 H    0.998 --    14 C    0.968
    16   6 C    3.978 --    26 C    1.834    14 C    1.017    17 B    0.998
    17   5 B    3.376 --    25 O    1.133    18 O    1.127    16 C    0.998
    18   8 O    2.232 --    17 B    1.127    19 C    0.953
    19   6 C    3.943 --    20 C    0.997    21 C    0.991    18 O    0.953
                            22 C    0.936
    20   6 C    3.994 --    19 C    0.997    47 H    0.984    46 H    0.983
                            48 H    0.982
    21   6 C    3.994 --    19 C    0.991    51 H    0.984    50 H    0.984
                            49 H    0.983
    22   6 C    3.942 --    24 C    0.996    23 C    0.991    25 O    0.953
                            19 C    0.936
    23   6 C    3.995 --    22 C    0.991    52 H    0.984    54 H    0.984
                            53 H    0.983
    24   6 C    3.994 --    22 C    0.996    55 H    0.985    57 H    0.983
                            56 H    0.982
    25   8 O    2.236 --    17 B    1.133    22 C    0.953
    26   6 C    3.988 --    16 C    1.834    27 C    1.022    58 H    0.967
    27   6 C    3.981 --    26 C    1.022    28 H    0.968    29 C    0.955
                            10 C    0.924
    28   1 H    0.998 --    27 C    0.968
    29   6 C    3.966 --    30 C    1.575    59 H    0.971    27 C    0.955
                            10 C    0.298
    30   6 C    3.979 --    29 C    1.575    31 C    1.253    60 H    0.965
                            11 C    0.103
    31   6 C    3.943 --    30 C    1.253    32 H    0.974    14 C    0.937
                            12 C    0.628
    32   1 H    0.999 --    31 C    0.974
    33   1 H    0.997 --     1 C    0.983
    34   1 H    0.998 --     1 C    0.985
    35   1 H    0.997 --     1 C    0.982
    36   1 H    0.997 --     4 C    0.983
    37   1 H    0.998 --     4 C    0.984
    38   1 H    0.998 --     4 C    0.984
    39   1 H    0.998 --     6 C    0.984
    40   1 H    0.997 --     6 C    0.982
    41   1 H    0.997 --     6 C    0.983
    42   1 H    0.998 --     7 C    0.984
    43   1 H    0.997 --     7 C    0.983
    44   1 H    0.998 --     7 C    0.984
    45   1 H    0.999 --    11 C    0.963
    46   1 H    0.997 --    20 C    0.983
    47   1 H    0.998 --    20 C    0.984
    48   1 H    0.997 --    20 C    0.982
    49   1 H    0.997 --    21 C    0.983
    50   1 H    0.998 --    21 C    0.984
    51   1 H    0.998 --    21 C    0.984
    52   1 H    0.998 --    23 C    0.984
    53   1 H    0.997 --    23 C    0.983
    54   1 H    0.998 --    23 C    0.984
    55   1 H    0.998 --    24 C    0.985
    56   1 H    0.997 --    24 C    0.982
    57   1 H    0.997 --    24 C    0.983
    58   1 H    0.998 --    26 C    0.967
    59   1 H    0.999 --    29 C    0.971
    60   1 H    0.999 --    30 C    0.965
 ---------------------------------------------------------------------------

molecular dipole:
                 x           y           z       tot (Debye)
 q only:       -0.243      -0.432       0.108
   full:       -0.115      -0.495       0.032       1.295

           -------------------------------------------------
          | TOTAL ENERGY              -82.302631747488 Eh   |
          | GRADIENT NORM               0.000229600182 Eh/α |
          | HOMO-LUMO GAP               2.980863431528 eV   |
           -------------------------------------------------

 * finished run on 2022/07/09 at 18:33:15.747
