   * xtb version 6.5.0 (homebrew) compiled by 'nhattrup@GPGGRP-SHANNON.CHEME.CMU.EDU' on
          program call               : /opt/homebrew/bin/xtb bvl_bpin2_scan_3-2_xtb.xyz --chrg 0 --uhf 0 --opt --input xcontrol_bvl_bpin2_scan_3-2_xtb

   ID    Z sym.   atoms
    1    6 C      1, 2, 4-7, 10-12, 14, 16, 19-24, 26, 27, 29-31
    2    8 O      3, 8, 18, 25
    3    5 B      9, 17
    4    1 H      13, 15, 28, 32-60
constraining bond 12 31 to    1.8333000 Å, actual value:    1.7165951 Å
constraining bond 10 29 to    2.2778000 Å, actual value:    2.3889394 Å

          :  Hamiltonian                  GFN2-xTB          :
 * total energy  :   -82.1269050 Eh     change       -0.1238931E-08 Eh
 * total energy  :   -82.2554778 Eh     change       -0.1285728E+00 Eh
 * total energy  :   -82.3000810 Eh     change       -0.4460323E-01 Eh
 * total energy  :   -82.3008059 Eh     change       -0.7248906E-03 Eh
 * total energy  :   -82.2997832 Eh     change        0.1022746E-02 Eh
 * total energy  :   -82.3000491 Eh     change       -0.2658754E-03 Eh
 * total energy  :   -82.3015161 Eh     change       -0.1467091E-02 Eh
 * total energy  :   -82.3018397 Eh     change       -0.3235714E-03 Eh
 * total energy  :   -82.3019870 Eh     change       -0.1473142E-03 Eh
 * total energy  :   -82.3023488 Eh     change       -0.3617929E-03 Eh
 * total energy  :   -82.3031114 Eh     change       -0.1905337E-04 Eh
 * total energy  :   -82.3031288 Eh     change       -0.1740276E-04 Eh
 * total energy  :   -82.3031442 Eh     change       -0.1538298E-04 Eh
 * total energy  :   -82.3031579 Eh     change       -0.1371656E-04 Eh
 * total energy  :   -82.3031700 Eh     change       -0.1208509E-04 Eh
 * total energy  :   -82.3031797 Eh     change       -0.9762141E-05 Eh
 * total energy  :   -82.3031869 Eh     change       -0.7150315E-05 Eh
 * total energy  :   -82.3031923 Eh     change       -0.5414053E-05 Eh
 * total energy  :   -82.3031936 Eh     change       -0.1359620E-05 Eh
   *** GEOMETRY OPTIMIZATION CONVERGED AFTER 44 ITERATIONS ***

 final structure:
================
60
 xtb: 6.5.0 (homebrew)
C            3.39310603817951      -37.94683980301079       16.04558952129115
C            3.67266252352557      -38.24336801364121       17.51737421615810
O            3.23624430075080      -37.14587301618494       18.31623564589673
C            2.84737307607136      -39.46271750913149       17.94863577708001
C            5.19453030381366      -38.37274612102806       17.88998545179482
C            5.69719274116793      -39.80525142714428       18.05604527750927
C            6.11376854209259      -37.62941529785368       16.91208943219439
O            5.28146319877738      -37.69078374136794       19.13996353404803
B            4.15989068267969      -36.92208624443473       19.30243058363983
C            3.95159002608035      -35.92939109048712       20.47881864427567
C            4.98101104457653      -35.67419140197725       21.32814917677893
C            5.03295970843988      -34.75470406138970       22.40664562883498
H            5.98389984459647      -34.63726931050513       22.90447017965126
C            3.85655678238711      -34.09768307018484       23.08158066592645
H            4.08566376409346      -33.77030227732233       24.09257542812684
C            2.51004980417188      -34.73117819801676       23.04084905422083
B            1.74003037253293      -34.85225237218678       24.39338402307763
O            2.25573523722002      -34.45453961881585       25.59722804846393
C            1.37971912531768      -34.89109723243102       26.63604788394867
C            1.26825879693856      -33.80428463491793       27.70249288914362
C            2.01617922944768      -36.14152014436700       27.25630740244253
C            0.04678605481218      -35.20507129491654       25.86544171561263
C           -0.93107008952832      -34.02322715413262       25.86263583668397
C           -0.68694048647762      -36.46055007087392       26.33092728337042
O            0.48756294608011      -35.38296662628383       24.51920684717182
C            1.98259146776896      -35.21851395496761       21.91592389585380
C            2.61866712991793      -35.21522740414142       20.56487933952507
H            1.93665485633677      -35.67478144262004       19.84814814849320
C            3.05608747185921      -33.88037237970309       20.04453607592391
C            3.80520247765015      -32.98627488119753       20.71358997796494
C            4.30850097194904      -33.11677359707392       22.03970690867382
H            4.97016806031871      -32.33727452531240       22.38758687529689
H            2.31761211754146      -37.89491542239588       15.89484940343395
H            3.79809287701065      -38.73748872269272       15.41970273546803
H            3.82035343212120      -36.99451020457286       15.74870930115584
H            1.79336619607469      -39.23241136889399       17.81035542740926
H            3.00955533271921      -39.67132865603495       19.00319204108345
H            3.09878114226633      -40.33746744569438       17.35645298804746
H            5.55870160734341      -40.36215087556027       17.13321573141038
H            5.18142539582256      -40.31016321529464       18.86629192873054
H            6.75716785662399      -39.78005194441048       18.29643578470310
H            6.13365248460756      -38.11731593620733       15.94219150020535
H            7.11993567673678      -37.62021498929891       17.32500154357089
H            5.78822227390855      -36.59822382472500       16.80036678375892
H            5.91241116583650      -36.18602576012534       21.11539371750575
H            2.23476951570374      -33.68396393560384       28.18565767485699
H            0.53386992835328      -34.08783948886077       28.45154674847736
H            0.99019502779819      -32.85126237806461       27.26438852465575
H            3.00844063221840      -35.88116613500627       27.61772984832956
H            2.12663702192848      -36.91805018345891       26.50349601831844
H            1.42363099991439      -36.51372186143075       28.08658684200821
H           -1.34602370494092      -33.85423049541721       26.85179687252687
H           -1.74053459666272      -34.24728726337420       25.17182513691316
H           -0.43159867148205      -33.12327155578274       25.51282577364860
H           -0.95033584074007      -36.37443745966007       27.38168706060892
H           -0.08077133519041      -37.34772976776601       26.17974766636188
H           -1.59751840677670      -36.57186317406801       25.74759952610962
H            1.00348465076129      -35.67380190531140       21.97764693510072
H            2.81326338396471      -33.67863277656352       19.01067544010808
H            4.13484783293613      -32.09889533611911       20.18497967644521

          :  Hamiltonian                  GFN2-xTB          :
         :: total energy             -82.303193656931 Eh    ::
         :: gradient norm              0.000379961492 Eh/a0 ::
         :: HOMO-LUMO gap              3.047039216894 eV    ::
         :: SCC energy               -83.380491987634 Eh    ::
         :: -> dispersion             -0.061458984101 Eh    ::
         :: repulsion energy           1.076389897311 Eh    ::

    * Orbital Energies and Occupations

         #    Occupation            Energy/Eh            Energy/eV
      -------------------------------------------------------------
         1        2.0000           -0.6879396             -18.7198
       ...           ...                  ...                  ...
        63        2.0000           -0.4356140             -11.8537
        64        2.0000           -0.4312716             -11.7355
        65        2.0000           -0.4282509             -11.6533
        66        2.0000           -0.4201112             -11.4318
        67        2.0000           -0.4189234             -11.3995
        68        2.0000           -0.4135925             -11.2544
        69        2.0000           -0.4053936             -11.0313
        70        2.0000           -0.3975253             -10.8172
        71        2.0000           -0.3950585             -10.7501
        72        2.0000           -0.3936290             -10.7112
        73        2.0000           -0.3884967             -10.5715
        74        2.0000           -0.3544572              -9.6453
        75        2.0000           -0.3427925              -9.3279 (HOMO)
        76                         -0.2308159              -6.2808 (LUMO)
        77                         -0.2168656              -5.9012
        78                         -0.1898542              -5.1662
        79                         -0.1118923              -3.0447
        80                         -0.0983631              -2.6766
        81                         -0.0650059              -1.7689
        82                          0.0086640               0.2358
        83                          0.0129711               0.3530
        84                          0.0288124               0.7840
        85                          0.0308602               0.8397
        86                          0.0567422               1.5440
       ...                                ...                  ...
       144                          0.6837430              18.6056
      -------------------------------------------------------------
                  HL-Gap            0.1119766 Eh            3.0470 eV

     #   Z          covCN         q      C6AA      α(0)
     1   6 C        3.755    -0.117    22.789     6.807
     2   6 C        3.859     0.129    18.450     6.109
     3   8 O        1.638    -0.374    20.357     6.090
     4   6 C        3.755    -0.116    22.770     6.804
     5   6 C        3.859     0.129    18.448     6.108
     6   6 C        3.755    -0.117    22.797     6.808
     7   6 C        3.755    -0.115    22.767     6.803
     8   8 O        1.638    -0.375    20.384     6.094
     9   5 B        2.659     0.431    15.571     6.643
    10   6 C        2.933    -0.085    30.137     9.003
    11   6 C        2.894    -0.036    28.894     8.813
    12   6 C        3.690    -0.020    21.114     6.576
    13   1 H        0.926     0.032     2.563     2.503
    14   6 C        3.864    -0.008    20.686     6.468
    15   1 H        0.925     0.047     2.362     2.403
    16   6 C        2.863    -0.085    30.124     8.996
    17   5 B        2.663     0.432    15.553     6.637
    18   8 O        1.638    -0.373    20.348     6.089
    19   6 C        3.860     0.129    18.453     6.109
    20   6 C        3.755    -0.117    22.800     6.808
    21   6 C        3.755    -0.116    22.781     6.806
    22   6 C        3.861     0.129    18.454     6.109
    23   6 C        3.755    -0.117    22.787     6.806
    24   6 C        3.755    -0.118    22.808     6.810
    25   8 O        1.638    -0.370    20.281     6.079
    26   6 C        2.898    -0.025    28.622     8.772
    27   6 C        3.863    -0.015    20.795     6.485
    28   1 H        0.924     0.045     2.379     2.412
    29   6 C        2.960    -0.032    28.788     8.801
    30   6 C        2.889    -0.042    29.051     8.837
    31   6 C        3.692    -0.016    21.052     6.565
    32   1 H        0.926     0.032     2.565     2.504
    33   1 H        0.925     0.054     2.273     2.358
    34   1 H        0.925     0.039     2.464     2.455
    35   1 H        0.925     0.051     2.305     2.374
    36   1 H        0.925     0.052     2.300     2.371
    37   1 H        0.925     0.043     2.405     2.425
    38   1 H        0.925     0.042     2.428     2.437
    39   1 H        0.925     0.039     2.459     2.452
    40   1 H        0.925     0.052     2.299     2.371
    41   1 H        0.925     0.054     2.275     2.359
    42   1 H        0.925     0.042     2.423     2.434
    43   1 H        0.925     0.051     2.303     2.373
    44   1 H        0.925     0.043     2.410     2.428
    45   1 H        0.925     0.035     2.519     2.482
    46   1 H        0.925     0.054     2.269     2.356
    47   1 H        0.925     0.040     2.451     2.448
    48   1 H        0.925     0.052     2.293     2.368
    49   1 H        0.925     0.052     2.296     2.370
    50   1 H        0.925     0.044     2.399     2.422
    51   1 H        0.925     0.043     2.414     2.430
    52   1 H        0.925     0.043     2.412     2.429
    53   1 H        0.925     0.053     2.286     2.364
    54   1 H        0.925     0.044     2.398     2.422
    55   1 H        0.925     0.040     2.449     2.447
    56   1 H        0.925     0.052     2.291     2.367
    57   1 H        0.925     0.055     2.260     2.351
    58   1 H        0.925     0.037     2.484     2.464
    59   1 H        0.926     0.027     2.632     2.537
    60   1 H        0.925     0.023     2.683     2.561

Wiberg/Mayer (AO) data.
largest (>0.10) Wiberg bond orders for each atom

     #   Z sym  total        # sym  WBO       # sym  WBO       # sym  WBO
 ---------------------------------------------------------------------------
     1   6 C    3.994 --     2 C    0.996    34 H    0.985    33 H    0.983
                            35 H    0.982
     2   6 C    3.944 --     1 C    0.996     4 C    0.990     3 O    0.955
                             5 C    0.936
     3   8 O    2.226 --     9 B    1.120     2 C    0.955
     4   6 C    3.994 --     2 C    0.990    38 H    0.985    37 H    0.984
                            36 H    0.983
     5   6 C    3.943 --     6 C    0.996     7 C    0.990     8 O    0.954
                             2 C    0.936
     6   6 C    3.994 --     5 C    0.996    39 H    0.985    41 H    0.983
                            40 H    0.982
     7   6 C    3.995 --     5 C    0.990    42 H    0.985    44 H    0.984
                            43 H    0.983
     8   8 O    2.225 --     9 B    1.121     5 C    0.954
     9   5 B    3.380 --     8 O    1.121     3 O    1.120    10 C    1.014
    10   6 C    3.966 --    11 C    1.648     9 B    1.014    27 C    0.952
                            29 C    0.117
    11   6 C    3.990 --    10 C    1.648    12 C    1.238    45 H    0.962
    12   6 C    3.940 --    11 C    1.238    13 H    0.974    14 C    0.932
                            31 C    0.624
    13   1 H    0.999 --    12 C    0.974
    14   6 C    3.974 --    16 C    1.020    15 H    0.967    31 C    0.949
                            12 C    0.932
    15   1 H    0.997 --    14 C    0.967
    16   6 C    3.977 --    26 C    1.837    14 C    1.020    17 B    0.998
    17   5 B    3.376 --    25 O    1.134    18 O    1.127    16 C    0.998
    18   8 O    2.231 --    17 B    1.127    19 C    0.952
    19   6 C    3.943 --    20 C    0.997    21 C    0.991    18 O    0.952
                            22 C    0.937
    20   6 C    3.994 --    19 C    0.997    47 H    0.984    46 H    0.983
                            48 H    0.982
    21   6 C    3.994 --    19 C    0.991    51 H    0.984    50 H    0.984
                            49 H    0.983
    22   6 C    3.942 --    24 C    0.997    23 C    0.991    25 O    0.952
                            19 C    0.937
    23   6 C    3.995 --    22 C    0.991    52 H    0.984    54 H    0.984
                            53 H    0.983
    24   6 C    3.994 --    22 C    0.997    55 H    0.984    57 H    0.983
                            56 H    0.982
    25   8 O    2.237 --    17 B    1.134    22 C    0.952
    26   6 C    3.986 --    16 C    1.837    27 C    1.007    58 H    0.967
    27   6 C    3.993 --    26 C    1.007    29 C    0.978    28 H    0.970
                            10 C    0.952
    28   1 H    0.998 --    27 C    0.970
    29   6 C    3.980 --    30 C    1.722    27 C    0.978    59 H    0.971
                            10 C    0.117
    30   6 C    3.990 --    29 C    1.722    31 C    1.209    60 H    0.964
    31   6 C    3.931 --    30 C    1.209    32 H    0.975    14 C    0.949
                            12 C    0.624
    32   1 H    0.999 --    31 C    0.975
    33   1 H    0.997 --     1 C    0.983
    34   1 H    0.998 --     1 C    0.985
    35   1 H    0.997 --     1 C    0.982
    36   1 H    0.997 --     4 C    0.983
    37   1 H    0.998 --     4 C    0.984
    38   1 H    0.998 --     4 C    0.985
    39   1 H    0.998 --     6 C    0.985
    40   1 H    0.997 --     6 C    0.982
    41   1 H    0.997 --     6 C    0.983
    42   1 H    0.998 --     7 C    0.985
    43   1 H    0.997 --     7 C    0.983
    44   1 H    0.998 --     7 C    0.984
    45   1 H    0.999 --    11 C    0.962
    46   1 H    0.997 --    20 C    0.983
    47   1 H    0.998 --    20 C    0.984
    48   1 H    0.997 --    20 C    0.982
    49   1 H    0.997 --    21 C    0.983
    50   1 H    0.998 --    21 C    0.984
    51   1 H    0.998 --    21 C    0.984
    52   1 H    0.998 --    23 C    0.984
    53   1 H    0.997 --    23 C    0.983
    54   1 H    0.998 --    23 C    0.984
    55   1 H    0.998 --    24 C    0.984
    56   1 H    0.997 --    24 C    0.982
    57   1 H    0.997 --    24 C    0.983
    58   1 H    0.998 --    26 C    0.967
    59   1 H    0.999 --    29 C    0.971
    60   1 H    0.999 --    30 C    0.964
 ---------------------------------------------------------------------------

molecular dipole:
                 x           y           z       tot (Debye)
 q only:       -0.233      -0.398       0.283
   full:       -0.099      -0.473       0.228       1.359

           -------------------------------------------------
          | TOTAL ENERGY              -82.303193656931 Eh   |
          | GRADIENT NORM               0.000379961492 Eh/α |
          | HOMO-LUMO GAP               3.047039216894 eV   |
           -------------------------------------------------

 * finished run on 2022/07/09 at 18:33:04.655
