   * xtb version 6.5.0 (homebrew) compiled by 'nhattrup@GPGGRP-SHANNON.CHEME.CMU.EDU' on
          program call               : /opt/homebrew/bin/xtb bvl_bpin2_scan_9-0_xtb.xyz --chrg 0 --uhf 0 --opt --input xcontrol_bvl_bpin2_scan_9-0_xtb

   ID    Z sym.   atoms
    1    6 C      1, 2, 4-7, 10-12, 14, 16, 19-24, 26, 27, 29-31
    2    8 O      3, 8, 18, 25
    3    5 B      9, 17
    4    1 H      13, 15, 28, 32-60
constraining bond 12 31 to    2.5000000 Å, actual value:    2.3851148 Å
constraining bond 10 29 to    2.5000000 Å, actual value:    2.4959206 Å

          :  Hamiltonian                  GFN2-xTB          :
 * total energy  :   -82.1702577 Eh     change       -0.1892701E-08 Eh
 * total energy  :   -82.2278153 Eh     change       -0.5755764E-01 Eh
 * total energy  :   -82.2569394 Eh     change       -0.2912410E-01 Eh
 * total energy  :   -82.2572166 Eh     change       -0.2771224E-03 Eh
 * total energy  :   -82.2575580 Eh     change       -0.3414305E-03 Eh
 * total energy  :   -82.2575792 Eh     change       -0.2120305E-04 Eh
 * total energy  :   -82.2577716 Eh     change       -0.1924340E-03 Eh
 * total energy  :   -82.2579556 Eh     change       -0.1839790E-03 Eh
 * total energy  :   -82.2580549 Eh     change       -0.9932811E-04 Eh
 * total energy  :   -82.2581002 Eh     change       -0.4527731E-04 Eh
 * total energy  :   -82.2581267 Eh     change       -0.2647080E-04 Eh
 * total energy  :   -82.2581466 Eh     change       -0.1996471E-04 Eh
 * total energy  :   -82.2581587 Eh     change       -0.1200447E-04 Eh
 * total energy  :   -82.2581691 Eh     change       -0.1047351E-04 Eh
 * total energy  :   -82.2581775 Eh     change       -0.8339325E-05 Eh
 * total energy  :   -82.2581889 Eh     change       -0.1141152E-04 Eh
 * total energy  :   -82.2581935 Eh     change       -0.4580048E-05 Eh
   *** GEOMETRY OPTIMIZATION CONVERGED AFTER 17 ITERATIONS ***

 final structure:
================
60
 xtb: 6.5.0 (homebrew)
C            3.52248633706013      -37.80525379331299       15.95756068411218
C            3.70217160625534      -38.18659381761606       17.42542565530530
O            3.29506189764861      -37.09928829815831       18.25366008801421
C            2.78018936135660      -39.36858386986034       17.75330254989954
C            5.18867731598620      -38.43542644611897       17.86995935254880
C            5.59675599747538      -39.90369389583606       17.96787096268581
C            6.20296975518694      -37.68905757350115       16.99312748771866
O            5.24350037886637      -37.84037337586955       19.16463015434082
B            4.16921985108810      -36.99795955808601       19.30755152728868
C            3.94476202386726      -36.10223447123812       20.54259519204297
C            4.96101948077562      -35.92767127214259       21.47885902173630
C            4.98931220534441      -35.12951795335410       22.58918554549971
H            5.91792015868378      -35.04201578024387       23.13397715725861
C            3.90133521478125      -34.12676392687838       23.00288778548441
H            4.13294002802264      -33.79133653883802       24.01674502110332
C            2.53302545629694      -34.76679858494461       23.03660808673586
B            1.78494482234868      -34.86139525420797       24.40032002488800
O            2.27972800015633      -34.37726570855377       25.58058356718348
C            1.42148849558676      -34.78961439085812       26.64278002765577
C            1.24434215643650      -33.63930039685563       27.63149732955469
C            2.12054423771225      -35.95751706837973       27.35053576420209
C            0.11038659645271      -35.22698313679678       25.89288570414956
C           -0.94515719448274      -34.11538197359003       25.83343737942861
C           -0.54103324874803      -36.50152866964403       26.42531323297556
O            0.55940760349106      -35.44614177546594       24.55684565259106
C            1.99319350890572      -35.27081806154178       21.92717227880293
C            2.63855437447729      -35.26224481181688       20.57805548891412
H            1.96088614337930      -35.72534924616763       19.85768030112405
C            2.95889221598729      -33.86177809968112       20.05605305497250
C            3.60650230764585      -32.87447689722154       20.76434485785715
C            3.98034804824582      -32.90261984101816       22.08684619297581
H            4.56718768594856      -32.07989596335621       22.46786870990160
H            2.46189707368624      -37.67942213596675       15.75379864368652
H            3.91322745084184      -38.58915475647068       15.31429788644825
H            4.02153348186286      -36.86850507382069       15.73143945263013
H            1.75086572619032      -39.06324745599904       17.57934796352381
H            2.87736696082145      -39.63990793282498       18.80158029231686
H            3.00456970595730      -40.22756253967950       17.12783321902905
H            5.47777840997968      -40.39394590562748       17.00534108949000
H            5.00806925432576      -40.42423013241386       18.71617807771450
H            6.64136247863568      -39.95861095669334       18.26427962454233
H            6.25096308858074      -38.11611494414721       15.99589555121236
H            7.18303435333334      -37.76470157738271       17.45869054704612
H            5.94160876876805      -36.63548339019513       16.93116186658134
H            5.83723643577666      -36.54371644147710       21.30364541279975
H            2.20194730224683      -33.42686727648741       28.10045092097756
H            0.52895575898786      -33.91325105209778       28.40226153248797
H            0.90863710086584      -32.73799583849520       27.12898362846513
H            3.09362680590695      -35.61831112281023       27.69836996480390
H            2.28046335285138      -36.77625909848400       26.65350750152870
H            1.54232520110299      -36.30491429942347       28.20146451997761
H           -1.36153684438599      -33.91671318522163       26.81644020971714
H           -1.74396223445397      -34.43513129381991       25.16827891663717
H           -0.51269550323420      -33.20592860957104       25.42424382377612
H           -0.81106972575040      -36.37725344588282       27.47048192359540
H            0.12107907071238      -37.35457116233641       26.31939291317367
H           -1.44160134807726      -36.70161656844962       25.85019546337561
H            1.02111614476636      -35.73962443970733       21.99849937821051
H            2.83520360773849      -33.73568041977500       18.99123607772462
H            3.81019529972384      -31.95335849358517       20.22635775957573

          :  Hamiltonian                  GFN2-xTB          :
         :: total energy             -82.258193454346 Eh    ::
         :: gradient norm              0.000891818792 Eh/a0 ::
         :: HOMO-LUMO gap              0.671407321448 eV    ::
         :: SCC energy               -83.323586212336 Eh    ::
         :: -> dispersion             -0.062048765778 Eh    ::
         :: repulsion energy           1.064368830934 Eh    ::

    * Orbital Energies and Occupations

         #    Occupation            Energy/Eh            Energy/eV
      -------------------------------------------------------------
         1        2.0000           -0.6855822             -18.6556
       ...           ...                  ...                  ...
        63        2.0000           -0.4362645             -11.8714
        64        2.0000           -0.4307328             -11.7208
        65        2.0000           -0.4208287             -11.4513
        66        2.0000           -0.4187332             -11.3943
        67        2.0000           -0.4153137             -11.3013
        68        2.0000           -0.4128340             -11.2338
        69        2.0000           -0.4038158             -10.9884
        70        2.0000           -0.3974205             -10.8144
        71        2.0000           -0.3952776             -10.7561
        72        2.0000           -0.3949491             -10.7471
        73        2.0000           -0.3897163             -10.6047
        74        2.0000           -0.3665146              -9.9734
        75        2.0000           -0.3205396              -8.7223 (HOMO)
        76        0.0000           -0.2958658              -8.0509 (LUMO)
        77                         -0.2158814              -5.8744
        78                         -0.1837638              -5.0005
        79                         -0.1572032              -4.2777
        80                         -0.0929872              -2.5303
        81                         -0.0887479              -2.4150
        82                          0.0113934               0.3100
        83                          0.0142877               0.3888
        84                          0.0298669               0.8127
        85                          0.0306756               0.8347
        86                          0.0573069               1.5594
       ...                                ...                  ...
       144                          0.6738684              18.3369
      -------------------------------------------------------------
                  HL-Gap            0.0246738 Eh            0.6714 eV

     #   Z          covCN         q      C6AA      α(0)
     1   6 C        3.755    -0.116    22.786     6.806
     2   6 C        3.858     0.130    18.442     6.107
     3   8 O        1.638    -0.376    20.408     6.098
     4   6 C        3.755    -0.116    22.769     6.804
     5   6 C        3.858     0.130    18.441     6.107
     6   6 C        3.755    -0.117    22.794     6.808
     7   6 C        3.755    -0.115    22.757     6.802
     8   8 O        1.638    -0.376    20.396     6.096
     9   5 B        2.657     0.428    15.611     6.654
    10   6 C        2.866    -0.082    30.053     8.986
    11   6 C        2.891    -0.031    28.765     8.793
    12   6 C        2.891    -0.033    28.833     8.804
    13   1 H        0.926     0.030     2.583     2.513
    14   6 C        3.858    -0.016    20.828     6.491
    15   1 H        0.924     0.048     2.348     2.396
    16   6 C        2.866    -0.083    30.080     8.990
    17   5 B        2.660     0.430    15.580     6.645
    18   8 O        1.638    -0.371    20.297     6.081
    19   6 C        3.859     0.129    18.460     6.110
    20   6 C        3.755    -0.117    22.796     6.808
    21   6 C        3.755    -0.116    22.777     6.805
    22   6 C        3.859     0.129    18.458     6.110
    23   6 C        3.755    -0.116    22.783     6.806
    24   6 C        3.755    -0.117    22.805     6.809
    25   8 O        1.638    -0.370    20.293     6.081
    26   6 C        2.899    -0.026    28.659     8.778
    27   6 C        3.854    -0.016    20.817     6.489
    28   1 H        0.924     0.049     2.327     2.386
    29   6 C        2.894    -0.026    28.659     8.777
    30   6 C        2.888    -0.030    28.745     8.790
    31   6 C        2.893    -0.028    28.694     8.783
    32   1 H        0.926     0.032     2.557     2.501
    33   1 H        0.925     0.054     2.276     2.359
    34   1 H        0.925     0.039     2.466     2.456
    35   1 H        0.925     0.051     2.311     2.377
    36   1 H        0.925     0.051     2.304     2.374
    37   1 H        0.925     0.043     2.403     2.424
    38   1 H        0.925     0.042     2.428     2.437
    39   1 H        0.925     0.039     2.464     2.455
    40   1 H        0.925     0.052     2.297     2.370
    41   1 H        0.925     0.053     2.277     2.360
    42   1 H        0.925     0.042     2.426     2.436
    43   1 H        0.925     0.051     2.309     2.376
    44   1 H        0.925     0.042     2.421     2.433
    45   1 H        0.925     0.037     2.482     2.464
    46   1 H        0.925     0.054     2.272     2.357
    47   1 H        0.925     0.039     2.458     2.452
    48   1 H        0.925     0.052     2.300     2.372
    49   1 H        0.925     0.052     2.298     2.371
    50   1 H        0.925     0.044     2.399     2.422
    51   1 H        0.925     0.042     2.422     2.434
    52   1 H        0.925     0.042     2.418     2.432
    53   1 H        0.925     0.052     2.292     2.368
    54   1 H        0.925     0.044     2.402     2.424
    55   1 H        0.925     0.040     2.454     2.450
    56   1 H        0.925     0.052     2.296     2.370
    57   1 H        0.925     0.054     2.268     2.355
    58   1 H        0.925     0.037     2.496     2.470
    59   1 H        0.926     0.035     2.516     2.481
    60   1 H        0.925     0.028     2.611     2.527

Wiberg/Mayer (AO) data.
largest (>0.10) Wiberg bond orders for each atom

     #   Z sym  total        # sym  WBO       # sym  WBO       # sym  WBO
 ---------------------------------------------------------------------------
     1   6 C    3.994 --     2 C    0.996    34 H    0.985    33 H    0.983
                            35 H    0.983
     2   6 C    3.944 --     1 C    0.996     4 C    0.990     3 O    0.955
                             5 C    0.937
     3   8 O    2.217 --     9 B    1.110     2 C    0.955
     4   6 C    3.994 --     2 C    0.990    38 H    0.984    37 H    0.984
                            36 H    0.983
     5   6 C    3.943 --     6 C    0.996     7 C    0.990     8 O    0.955
                             2 C    0.937
     6   6 C    3.994 --     5 C    0.996    39 H    0.985    41 H    0.983
                            40 H    0.982
     7   6 C    3.994 --     5 C    0.990    42 H    0.985    44 H    0.984
                            43 H    0.983
     8   8 O    2.218 --     9 B    1.111     5 C    0.955
     9   5 B    3.390 --     8 O    1.111     3 O    1.110    10 C    1.036
    10   6 C    3.938 --    11 C    1.404     9 B    1.036    27 C    0.941
                            29 C    0.245    31 C    0.182
    11   6 C    3.991 --    12 C    1.542    10 C    1.404    45 H    0.959
    12   6 C    3.961 --    11 C    1.542    13 H    0.972    14 C    0.968
                            31 C    0.222    29 C    0.168
    13   1 H    0.999 --    12 C    0.972
    14   6 C    3.993 --    16 C    0.991    31 C    0.981    15 H    0.971
                            12 C    0.968
    15   1 H    0.998 --    14 C    0.971
    16   6 C    3.977 --    26 C    1.857    17 B    1.001    14 C    0.991
    17   5 B    3.376 --    25 O    1.130    18 O    1.127    16 C    1.001
    18   8 O    2.234 --    17 B    1.127    19 C    0.954
    19   6 C    3.943 --    20 C    0.997    21 C    0.991    18 O    0.954
                            22 C    0.936
    20   6 C    3.994 --    19 C    0.997    47 H    0.985    46 H    0.983
                            48 H    0.982
    21   6 C    3.994 --    19 C    0.991    51 H    0.985    50 H    0.984
                            49 H    0.983
    22   6 C    3.943 --    24 C    0.996    23 C    0.990    25 O    0.954
                            19 C    0.936
    23   6 C    3.995 --    22 C    0.990    52 H    0.984    54 H    0.984
                            53 H    0.983
    24   6 C    3.994 --    22 C    0.996    55 H    0.985    57 H    0.983
                            56 H    0.982
    25   8 O    2.235 --    17 B    1.130    22 C    0.954
    26   6 C    3.987 --    16 C    1.857    27 C    1.012    58 H    0.966
    27   6 C    3.992 --    26 C    1.012    29 C    0.984    28 H    0.970
                            10 C    0.941
    28   1 H    0.997 --    27 C    0.970
    29   6 C    3.954 --    30 C    1.475    27 C    0.984    59 H    0.973
                            10 C    0.245    12 C    0.168
    30   6 C    3.993 --    31 C    1.493    29 C    1.475    60 H    0.961
    31   6 C    3.942 --    30 C    1.493    14 C    0.981    32 H    0.973
                            12 C    0.222    10 C    0.182
    32   1 H    0.999 --    31 C    0.973
    33   1 H    0.997 --     1 C    0.983
    34   1 H    0.998 --     1 C    0.985
    35   1 H    0.997 --     1 C    0.983
    36   1 H    0.997 --     4 C    0.983
    37   1 H    0.998 --     4 C    0.984
    38   1 H    0.998 --     4 C    0.984
    39   1 H    0.998 --     6 C    0.985
    40   1 H    0.997 --     6 C    0.982
    41   1 H    0.997 --     6 C    0.983
    42   1 H    0.998 --     7 C    0.985
    43   1 H    0.997 --     7 C    0.983
    44   1 H    0.998 --     7 C    0.984
    45   1 H    0.998 --    11 C    0.959
    46   1 H    0.997 --    20 C    0.983
    47   1 H    0.998 --    20 C    0.985
    48   1 H    0.997 --    20 C    0.982
    49   1 H    0.997 --    21 C    0.983
    50   1 H    0.998 --    21 C    0.984
    51   1 H    0.998 --    21 C    0.985
    52   1 H    0.998 --    23 C    0.984
    53   1 H    0.997 --    23 C    0.983
    54   1 H    0.998 --    23 C    0.984
    55   1 H    0.998 --    24 C    0.985
    56   1 H    0.997 --    24 C    0.982
    57   1 H    0.997 --    24 C    0.983
    58   1 H    0.999 --    26 C    0.966
    59   1 H    0.998 --    29 C    0.973
    60   1 H    0.999 --    30 C    0.961
 ---------------------------------------------------------------------------

molecular dipole:
                 x           y           z       tot (Debye)
 q only:       -0.256      -0.289       0.114
   full:       -0.076      -0.334      -0.028       0.873

           -------------------------------------------------
          | TOTAL ENERGY              -82.258193454346 Eh   |
          | GRADIENT NORM               0.000891818792 Eh/α |
          | HOMO-LUMO GAP               0.671407321448 eV   |
           -------------------------------------------------

 * finished run on 2022/07/09 at 18:33:21.362
