   * xtb version 6.5.0 (homebrew) compiled by 'nhattrup@GPGGRP-SHANNON.CHEME.CMU.EDU' on
          program call               : /opt/homebrew/bin/xtb bvl_bpin2_scan_7-1_xtb.xyz --chrg 0 --uhf 0 --opt --input xcontrol_bvl_bpin2_scan_7-1_xtb

   ID    Z sym.   atoms
    1    6 C      1, 2, 4-7, 10-12, 14, 16, 19-24, 26, 27, 29-31
    2    8 O      3, 8, 18, 25
    3    5 B      9, 17
    4    1 H      13, 15, 28, 32-60
constraining bond 12 31 to    2.2778000 Å, actual value:    2.1624973 Å
constraining bond 10 29 to    2.3889000 Å, actual value:    2.4969260 Å

          :  Hamiltonian                  GFN2-xTB          :
 * total energy  :   -82.0981737 Eh     change       -0.5267822E-09 Eh
 * total energy  :   -82.2281160 Eh     change       -0.1299423E+00 Eh
 * total energy  :   -82.2722106 Eh     change       -0.4409458E-01 Eh
 * total energy  :   -82.2729003 Eh     change       -0.6897330E-03 Eh
 * total energy  :   -82.2736065 Eh     change       -0.7061941E-03 Eh
 * total energy  :   -82.2705938 Eh     change        0.3012679E-02 Eh
 * total energy  :   -82.2739725 Eh     change       -0.3378638E-02 Eh
 * total energy  :   -82.2741889 Eh     change       -0.2163872E-03 Eh
 * total energy  :   -82.2744340 Eh     change       -0.2451065E-03 Eh
 * total energy  :   -82.2747130 Eh     change       -0.2790652E-03 Eh
 * total energy  :   -82.2758507 Eh     change       -0.2254558E-04 Eh
 * total energy  :   -82.2759017 Eh     change       -0.5102610E-04 Eh
 * total energy  :   -82.2759154 Eh     change       -0.1363867E-04 Eh
 * total energy  :   -82.2759304 Eh     change       -0.1506702E-04 Eh
 * total energy  :   -82.2759366 Eh     change       -0.6216393E-05 Eh
 * total energy  :   -82.2759502 Eh     change       -0.1359980E-04 Eh
 * total energy  :   -82.2759548 Eh     change       -0.4537948E-05 Eh
 * total energy  :   -82.2759581 Eh     change       -0.3321089E-05 Eh
 * total energy  :   -82.2759608 Eh     change       -0.2659577E-05 Eh
   *** GEOMETRY OPTIMIZATION CONVERGED AFTER 48 ITERATIONS ***

 final structure:
================
60
 xtb: 6.5.0 (homebrew)
C            3.54454961369624      -37.76879468071638       15.94643069197309
C            3.72297167712450      -38.18390532860978       17.40517708054125
O            3.27867937999480      -37.13115739172390       18.25787951754389
C            2.83072695647041      -39.39814759621019       17.69379863399427
C            5.21307168870225      -38.40213884259964       17.85478429149517
C            5.65786688461346      -39.86124766017326       17.92452026673693
C            6.21382249328169      -37.61280494732303       17.00034937051920
O            5.24469246898316      -37.83107257326655       19.16114691444290
B            4.14593245158304      -37.02510021097641       19.31524759726151
C            3.89983167910468      -36.13289217420992       20.55249301147758
C            4.92846072558652      -35.89616443508597       21.45064433359314
C            4.95464667910012      -35.07255150107697       22.55276481414446
H            5.90128291160517      -34.92681771781756       23.05319419979215
C            3.83368423090708      -34.16885189343947       23.02359635751929
H            4.05742572259116      -33.80916706225486       24.02937677405854
C            2.46950155060108      -34.80394696790383       23.05030306804846
B            1.72746979268914      -34.87098566352827       24.42041871196085
O            2.25287045400964      -34.38973325083521       25.58882031280528
C            1.40662740833305      -34.78076044347041       26.66846822870832
C            1.27962797783005      -33.62695337472275       27.66051961178151
C            2.09082363997791      -35.96624157710814       27.36135692366908
C            0.07136364448245      -35.18499761101385       25.94413275104851
C           -0.94894375418306      -34.04074917501855       25.89227908927539
C           -0.60793074471072      -36.43571173694835       26.49756159791520
O            0.49245076688110      -35.42703578297235       24.60191831515800
C            1.93133215376722      -35.33289366086929       21.95195521403102
C            2.57093191003201      -35.36048355061769       20.60228982583216
H            1.89251450098876      -35.84066062607323       19.89471568091723
C            2.95140927707106      -34.00466323712061       20.04040519447841
C            3.66919699659703      -33.04490580896418       20.70589655600563
C            4.05338226106806      -33.04978826375261       22.03369183497830
H            4.71737292153321      -32.26521553180777       22.36773533953128
H            2.48262657558590      -37.66614178255053       15.73693537842710
H            3.96160713894992      -38.52504493909919       15.28673915993861
H            4.01996972011246      -36.81342112178256       15.74891877588113
H            1.79526572078951      -39.11493767273772       17.51901550989574
H            2.92641843910836      -39.69512743959071       18.73520497844181
H            3.08270895931165      -40.23363705950927       17.04746805274609
H            5.55578234807463      -40.33245066636791       16.95056826306235
H            5.07875994066377      -40.41317201102720       18.65764972615537
H            6.70212992834821      -39.89670390866043       18.22502952097486
H            6.27793046013451      -38.01714432484017       15.99460640594797
H            7.19257829463615      -37.67492597331610       17.47056735170350
H            5.92763390363757      -36.56466473652285       16.95951012738005
H            5.84130632532916      -36.44545321399333       21.24517336166238
H            2.25295784305551      -33.43831595587569       28.10685990761011
H            0.57592203772529      -33.88392528187522       28.44760299704889
H            0.95480535032102      -32.71742618450786       27.16595076742360
H            3.07887872882422      -35.65124337212488       27.68916940869524
H            2.21625340480279      -36.78797415060019       26.66076146401490
H            1.52190379575336      -36.30009206636878       28.22382265419255
H           -1.34723069837638      -33.82419013611654       26.87901584906366
H           -1.76509955944901      -34.33655796302248       25.23728383923628
H           -0.49113326628912      -33.14777319357544       25.47424774294348
H           -0.84840415877679      -36.29989498905648       27.54851086236418
H            0.02453599580192      -37.30932282881552       26.37924764054809
H           -1.52825735956757      -36.60956726005413       25.94567340223543
H            0.95655855390431      -35.79452599740109       22.03306555361458
H            2.80456653223792      -33.89358906640091       18.97673073429645
H            3.96512872504385      -32.17322642597566       20.13061845326355

          :  Hamiltonian                  GFN2-xTB          :
         :: total energy             -82.275960766473 Eh    ::
         :: gradient norm              0.000595839769 Eh/a0 ::
         :: HOMO-LUMO gap              1.318316820619 eV    ::
         :: SCC energy               -83.347768727932 Eh    ::
         :: -> dispersion             -0.062356844349 Eh    ::
         :: repulsion energy           1.070902383393 Eh    ::

    * Orbital Energies and Occupations

         #    Occupation            Energy/Eh            Energy/eV
      -------------------------------------------------------------
         1        2.0000           -0.6864358             -18.6789
       ...           ...                  ...                  ...
        63        2.0000           -0.4358631             -11.8604
        64        2.0000           -0.4301122             -11.7039
        65        2.0000           -0.4218121             -11.4781
        66        2.0000           -0.4193876             -11.4121
        67        2.0000           -0.4176387             -11.3645
        68        2.0000           -0.4138441             -11.2613
        69        2.0000           -0.3994343             -10.8692
        70        2.0000           -0.3985124             -10.8441
        71        2.0000           -0.3961339             -10.7794
        72        2.0000           -0.3951286             -10.7520
        73        2.0000           -0.3910273             -10.6404
        74        2.0000           -0.3650693              -9.9340
        75        2.0000           -0.3270680              -8.9000 (HOMO)
        76                         -0.2786207              -7.5817 (LUMO)
        77                         -0.2178561              -5.9282
        78                         -0.1855042              -5.0478
        79                         -0.1478900              -4.0243
        80                         -0.0953728              -2.5952
        81                         -0.0864395              -2.3521
        82                          0.0103303               0.2811
        83                          0.0141213               0.3843
        84                          0.0296298               0.8063
        85                          0.0306592               0.8343
        86                          0.0576260               1.5681
       ...                                ...                  ...
       144                          0.6782930              18.4573
      -------------------------------------------------------------
                  HL-Gap            0.0484473 Eh            1.3183 eV

     #   Z          covCN         q      C6AA      α(0)
     1   6 C        3.755    -0.117    22.786     6.806
     2   6 C        3.859     0.130    18.443     6.108
     3   8 O        1.638    -0.376    20.403     6.097
     4   6 C        3.755    -0.116    22.768     6.804
     5   6 C        3.859     0.130    18.442     6.107
     6   6 C        3.755    -0.117    22.795     6.808
     7   6 C        3.755    -0.115    22.758     6.802
     8   8 O        1.638    -0.376    20.397     6.096
     9   5 B        2.659     0.430    15.590     6.648
    10   6 C        2.883    -0.084    30.092     8.993
    11   6 C        2.892    -0.034    28.834     8.804
    12   6 C        2.959    -0.029    28.732     8.792
    13   1 H        0.926     0.030     2.591     2.517
    14   6 C        3.862    -0.012    20.744     6.477
    15   1 H        0.924     0.049     2.332     2.388
    16   6 C        2.865    -0.084    30.085     8.991
    17   5 B        2.661     0.431    15.572     6.643
    18   8 O        1.638    -0.372    20.314     6.084
    19   6 C        3.860     0.129    18.457     6.110
    20   6 C        3.755    -0.117    22.798     6.808
    21   6 C        3.755    -0.116    22.780     6.805
    22   6 C        3.860     0.129    18.457     6.110
    23   6 C        3.755    -0.116    22.784     6.806
    24   6 C        3.755    -0.118    22.806     6.809
    25   8 O        1.638    -0.370    20.282     6.079
    26   6 C        2.898    -0.025    28.638     8.774
    27   6 C        3.858    -0.014    20.786     6.484
    28   1 H        0.924     0.048     2.348     2.396
    29   6 C        2.910    -0.028    28.707     8.786
    30   6 C        2.888    -0.034    28.854     8.807
    31   6 C        2.961    -0.025    28.616     8.774
    32   1 H        0.926     0.031     2.575     2.509
    33   1 H        0.925     0.054     2.276     2.359
    34   1 H        0.925     0.039     2.466     2.456
    35   1 H        0.925     0.051     2.310     2.377
    36   1 H        0.925     0.051     2.303     2.373
    37   1 H        0.925     0.043     2.404     2.425
    38   1 H        0.925     0.041     2.429     2.437
    39   1 H        0.925     0.039     2.462     2.454
    40   1 H        0.925     0.052     2.297     2.370
    41   1 H        0.925     0.054     2.277     2.360
    42   1 H        0.925     0.042     2.426     2.436
    43   1 H        0.925     0.051     2.308     2.376
    44   1 H        0.925     0.042     2.420     2.433
    45   1 H        0.925     0.036     2.504     2.474
    46   1 H        0.925     0.054     2.270     2.356
    47   1 H        0.925     0.040     2.455     2.450
    48   1 H        0.925     0.052     2.298     2.370
    49   1 H        0.925     0.052     2.297     2.370
    50   1 H        0.925     0.044     2.398     2.422
    51   1 H        0.925     0.042     2.420     2.433
    52   1 H        0.925     0.043     2.414     2.430
    53   1 H        0.925     0.052     2.289     2.366
    54   1 H        0.925     0.044     2.400     2.423
    55   1 H        0.925     0.040     2.452     2.449
    56   1 H        0.925     0.052     2.292     2.368
    57   1 H        0.925     0.054     2.266     2.354
    58   1 H        0.925     0.037     2.488     2.467
    59   1 H        0.926     0.033     2.545     2.495
    60   1 H        0.925     0.026     2.640     2.541

Wiberg/Mayer (AO) data.
largest (>0.10) Wiberg bond orders for each atom

     #   Z sym  total        # sym  WBO       # sym  WBO       # sym  WBO
 ---------------------------------------------------------------------------
     1   6 C    3.994 --     2 C    0.996    34 H    0.985    33 H    0.983
                            35 H    0.983
     2   6 C    3.944 --     1 C    0.996     4 C    0.990     3 O    0.955
                             5 C    0.937
     3   8 O    2.219 --     9 B    1.113     2 C    0.955
     4   6 C    3.994 --     2 C    0.990    38 H    0.985    37 H    0.984
                            36 H    0.983
     5   6 C    3.943 --     6 C    0.996     7 C    0.990     8 O    0.955
                             2 C    0.937
     6   6 C    3.994 --     5 C    0.996    39 H    0.985    41 H    0.983
                            40 H    0.982
     7   6 C    3.994 --     5 C    0.990    42 H    0.985    44 H    0.984
                            43 H    0.983
     8   8 O    2.219 --     9 B    1.114     5 C    0.955
     9   5 B    3.387 --     8 O    1.114     3 O    1.113    10 C    1.030
    10   6 C    3.945 --    11 C    1.450     9 B    1.030    27 C    0.945
                            29 C    0.225    31 C    0.165
    11   6 C    3.991 --    12 C    1.482    10 C    1.450    45 H    0.960
    12   6 C    3.954 --    11 C    1.482    13 H    0.972    14 C    0.964
                            31 C    0.294    29 C    0.157
    13   1 H    0.999 --    12 C    0.972
    14   6 C    3.992 --    16 C    0.996    31 C    0.978    15 H    0.968
                            12 C    0.964
    15   1 H    0.997 --    14 C    0.968
    16   6 C    3.977 --    26 C    1.855    17 B    1.000    14 C    0.996
    17   5 B    3.376 --    25 O    1.132    18 O    1.127    16 C    1.000
    18   8 O    2.233 --    17 B    1.127    19 C    0.953
    19   6 C    3.943 --    20 C    0.997    21 C    0.990    18 O    0.953
                            22 C    0.936
    20   6 C    3.994 --    19 C    0.997    47 H    0.985    46 H    0.983
                            48 H    0.982
    21   6 C    3.994 --    19 C    0.990    51 H    0.984    50 H    0.984
                            49 H    0.983
    22   6 C    3.943 --    24 C    0.996    23 C    0.991    25 O    0.953
                            19 C    0.936
    23   6 C    3.995 --    22 C    0.991    52 H    0.984    54 H    0.984
                            53 H    0.983
    24   6 C    3.994 --    22 C    0.996    55 H    0.984    57 H    0.983
                            56 H    0.982
    25   8 O    2.236 --    17 B    1.132    22 C    0.953
    26   6 C    3.987 --    16 C    1.855    27 C    1.011    58 H    0.966
    27   6 C    3.993 --    26 C    1.011    29 C    0.981    28 H    0.970
                            10 C    0.945
    28   1 H    0.998 --    27 C    0.970
    29   6 C    3.959 --    30 C    1.517    27 C    0.981    59 H    0.973
                            10 C    0.225    12 C    0.157
    30   6 C    3.993 --    29 C    1.517    31 C    1.441    60 H    0.962
    31   6 C    3.938 --    30 C    1.441    14 C    0.978    32 H    0.973
                            12 C    0.294    10 C    0.165
    32   1 H    0.999 --    31 C    0.973
    33   1 H    0.997 --     1 C    0.983
    34   1 H    0.998 --     1 C    0.985
    35   1 H    0.997 --     1 C    0.983
    36   1 H    0.997 --     4 C    0.983
    37   1 H    0.998 --     4 C    0.984
    38   1 H    0.998 --     4 C    0.985
    39   1 H    0.998 --     6 C    0.985
    40   1 H    0.997 --     6 C    0.982
    41   1 H    0.997 --     6 C    0.983
    42   1 H    0.998 --     7 C    0.985
    43   1 H    0.997 --     7 C    0.983
    44   1 H    0.998 --     7 C    0.984
    45   1 H    0.998 --    11 C    0.960
    46   1 H    0.997 --    20 C    0.983
    47   1 H    0.998 --    20 C    0.985
    48   1 H    0.997 --    20 C    0.982
    49   1 H    0.997 --    21 C    0.983
    50   1 H    0.998 --    21 C    0.984
    51   1 H    0.998 --    21 C    0.984
    52   1 H    0.998 --    23 C    0.984
    53   1 H    0.997 --    23 C    0.983
    54   1 H    0.998 --    23 C    0.984
    55   1 H    0.998 --    24 C    0.984
    56   1 H    0.997 --    24 C    0.982
    57   1 H    0.997 --    24 C    0.983
    58   1 H    0.998 --    26 C    0.966
    59   1 H    0.998 --    29 C    0.973
    60   1 H    0.999 --    30 C    0.962
 ---------------------------------------------------------------------------

molecular dipole:
                 x           y           z       tot (Debye)
 q only:       -0.239      -0.285       0.174
   full:       -0.046      -0.331       0.033       0.853

           -------------------------------------------------
          | TOTAL ENERGY              -82.275960766473 Eh   |
          | GRADIENT NORM               0.000595839769 Eh/α |
          | HOMO-LUMO GAP               1.318316820619 eV   |
           -------------------------------------------------

 * finished run on 2022/07/09 at 18:33:18.578
