   * xtb version 6.5.0 (homebrew) compiled by 'nhattrup@GPGGRP-SHANNON.CHEME.CMU.EDU' on
          program call               : /opt/homebrew/bin/xtb bvl_bpin2_scan_7-3_xtb.xyz --chrg 0 --uhf 0 --opt --input xcontrol_bvl_bpin2_scan_7-3_xtb

   ID    Z sym.   atoms
    1    6 C      1, 2, 4-7, 10-12, 14, 16, 19-24, 26, 27, 29-31
    2    8 O      3, 8, 18, 25
    3    5 B      9, 17
    4    1 H      13, 15, 28, 32-60
constraining bond 12 31 to    2.2778000 Å, actual value:    2.1638672 Å
constraining bond 10 29 to    2.1667000 Å, actual value:    2.2753308 Å

          :  Hamiltonian                  GFN2-xTB          :
 * total energy  :   -82.1086286 Eh     change       -0.1041315E-08 Eh
 * total energy  :   -82.2404265 Eh     change       -0.1317979E+00 Eh
 * total energy  :   -82.2835087 Eh     change       -0.4308220E-01 Eh
 * total energy  :   -82.2842179 Eh     change       -0.7091709E-03 Eh
 * total energy  :   -82.2848940 Eh     change       -0.6761708E-03 Eh
 * total energy  :   -82.2808961 Eh     change        0.3997982E-02 Eh
 * total energy  :   -82.2852920 Eh     change       -0.4395950E-02 Eh
 * total energy  :   -82.2854881 Eh     change       -0.1960722E-03 Eh
 * total energy  :   -82.2856794 Eh     change       -0.1913628E-03 Eh
 * total energy  :   -82.2859473 Eh     change       -0.2678499E-03 Eh
 * total energy  :   -82.2862793 Eh     change       -0.9594535E-05 Eh
 * total energy  :   -82.2862893 Eh     change       -0.1008576E-04 Eh
 * total energy  :   -82.2862981 Eh     change       -0.8772366E-05 Eh
 * total energy  :   -82.2863082 Eh     change       -0.1009350E-04 Eh
 * total energy  :   -82.2863232 Eh     change       -0.1500405E-04 Eh
 * total energy  :   -82.2863420 Eh     change       -0.1876109E-04 Eh
 * total energy  :   -82.2863546 Eh     change       -0.1267060E-04 Eh
 * total energy  :   -82.2863598 Eh     change       -0.5105840E-05 Eh
 * total energy  :   -82.2863623 Eh     change       -0.2568142E-05 Eh
   *** GEOMETRY OPTIMIZATION CONVERGED AFTER 38 ITERATIONS ***

 final structure:
================
60
 xtb: 6.5.0 (homebrew)
C            3.58918716625029      -37.62986192309875       15.88183885065071
C            3.76344991267050      -38.13220317040141       17.31348336882287
O            3.27741539015892      -37.14939950949414       18.22578371767217
C            2.90469432268840      -39.38774285676448       17.51248733547145
C            5.25489096627561      -38.33390706930115       17.76722052642868
C            5.74051928170873      -39.78155610094466       17.75802539344252
C            6.24201757414455      -37.46880504188498       16.97270048177253
O            5.25691359930717      -37.83965106615118       19.10532546097298
B            4.13207627137706      -37.08140823365554       19.29664857885281
C            3.85031628902176      -36.26709261120043       20.58084151401927
C            4.88301378702655      -36.05270422718813       21.50405978201773
C            4.90519924605445      -35.24517170993295       22.60154594874711
H            5.83893820195516      -35.14324755546147       23.13662013971642
C            3.80513722751328      -34.30694826758970       23.03646494496292
H            4.04261422171919      -33.89884605466588       24.02029479207655
C            2.43504097251555      -34.92751517939774       23.11298859510849
B            1.70302914541768      -34.90954530914260       24.49057430107518
O            2.23697492390563      -34.36577633872592       25.62682655138715
C            1.38926520748288      -34.68260491705198       26.72977449940518
C            1.27781918589400      -33.47151115039034       27.65300927925732
C            2.06090324695272      -35.83349200656306       27.48992250554154
C            0.04750416123244      -35.11248205637342       26.03313288086565
C           -0.95652869196453      -33.95912646153126       25.91128134472988
C           -0.64832846502814      -36.31686138288541       26.66315430539900
O            0.46302904278883      -35.44183598381285       24.70784543362086
C            1.87678763197979      -35.51012086085413       22.05236457741456
C            2.47762035636248      -35.61445858337310       20.69602343543966
H            1.78835866492359      -36.12350174520321       20.02203390102968
C            2.98200359393893      -34.35967985036095       20.04425330824233
C            3.67449078426672      -33.33291489290139       20.66946712323515
C            4.01426769671803      -33.24204504184218       21.99092349991199
H            4.62824192044344      -32.40685515802639       22.29792578783826
H            2.52723541559410      -37.54620283856099       15.66429024966690
H            4.03739894152499      -38.32928975634959       15.18141800770220
H            4.03714529522978      -36.64999434439883       15.75197618723270
H            1.86349249023054      -39.12426384846064       17.34034575732294
H            2.99554602358644      -39.74662018234396       18.53466338412873
H            3.18993231725613      -40.17306779673180       16.81900092095956
H            5.66702525181938      -40.19641886937176       16.75637283299063
H            5.16685210814834      -40.39229059263955       18.44738965416887
H            6.78057755539388      -39.80527506397490       18.07366888231862
H            6.32817388165297      -37.81138348018727       15.94593710719910
H            7.21703881452996      -37.53217886183219       17.45048669637027
H            5.92792000472434      -36.42808555003073       16.98956467375269
H            5.79575107500595      -36.59071466999387       21.27266582515137
H            2.25278205120216      -33.27146270200643       28.09060497311210
H            0.56869209372616      -33.67233802153766       28.45157140979374
H            0.96715518007676      -32.58746091632678       27.10579029329720
H            3.05376253535535      -35.51204821399342       27.79637361925210
H            2.17398983157215      -36.69695728366952       26.83918114452025
H            1.49031656674946      -36.10823661382398       28.37197524408609
H           -1.35241337774829      -33.67793996515427       26.88255254804313
H           -1.77636848109529      -34.28214818354439       25.27390284449899
H           -0.48560785439894      -33.09954906097131       25.44103224367890
H           -0.88794751283085      -36.11149555534806       27.70302007325962
H           -0.02721707789923      -37.20451314569944       26.60180290498853
H           -1.57027396988121      -36.51334258683688       26.12163057769768
H            0.89940167053763      -35.95775191492947       22.17230714472833
H            2.88755459533437      -34.33530653675339       18.96950683407698
H            3.99903173881229      -32.52174112847391       20.02596580087805

          :  Hamiltonian                  GFN2-xTB          :
         :: total energy             -82.286362324140 Eh    ::
         :: gradient norm              0.000206814738 Eh/a0 ::
         :: HOMO-LUMO gap              1.885208596872 eV    ::
         :: SCC energy               -83.362242718635 Eh    ::
         :: -> dispersion             -0.062770002645 Eh    ::
         :: repulsion energy           1.075060436178 Eh    ::

    * Orbital Energies and Occupations

         #    Occupation            Energy/Eh            Energy/eV
      -------------------------------------------------------------
         1        2.0000           -0.6874821             -18.7073
       ...           ...                  ...                  ...
        63        2.0000           -0.4344798             -11.8228
        64        2.0000           -0.4318033             -11.7500
        65        2.0000           -0.4226724             -11.5015
        66        2.0000           -0.4207762             -11.4499
        67        2.0000           -0.4181186             -11.3776
        68        2.0000           -0.4155557             -11.3078
        69        2.0000           -0.4013045             -10.9201
        70        2.0000           -0.3968504             -10.7988
        71        2.0000           -0.3963729             -10.7859
        72        2.0000           -0.3942890             -10.7291
        73        2.0000           -0.3916577             -10.6575
        74        2.0000           -0.3626452              -9.8681
        75        2.0000           -0.3324066              -9.0452 (HOMO)
        76                         -0.2631265              -7.1600 (LUMO)
        77                         -0.2189732              -5.9586
        78                         -0.1850588              -5.0357
        79                         -0.1424070              -3.8751
        80                         -0.0958125              -2.6072
        81                         -0.0842315              -2.2921
        82                          0.0099650               0.2712
        83                          0.0118560               0.3226
        84                          0.0290056               0.7893
        85                          0.0297785               0.8103
        86                          0.0575314               1.5655
       ...                                ...                  ...
       144                          0.6808543              18.5270
      -------------------------------------------------------------
                  HL-Gap            0.0692801 Eh            1.8852 eV

     #   Z          covCN         q      C6AA      α(0)
     1   6 C        3.755    -0.117    22.786     6.806
     2   6 C        3.858     0.130    18.441     6.107
     3   8 O        1.638    -0.378    20.442     6.103
     4   6 C        3.755    -0.116    22.771     6.804
     5   6 C        3.859     0.130    18.442     6.107
     6   6 C        3.755    -0.117    22.799     6.808
     7   6 C        3.755    -0.115    22.759     6.802
     8   8 O        1.638    -0.375    20.382     6.094
     9   5 B        2.658     0.431    15.575     6.645
    10   6 C        3.052    -0.077    29.874     8.964
    11   6 C        2.891    -0.039    28.957     8.823
    12   6 C        2.959    -0.032    28.807     8.803
    13   1 H        0.926     0.027     2.625     2.534
    14   6 C        3.863    -0.014    20.778     6.482
    15   1 H        0.924     0.047     2.360     2.402
    16   6 C        2.865    -0.082    30.039     8.984
    17   5 B        2.661     0.431    15.563     6.640
    18   8 O        1.638    -0.371    20.299     6.082
    19   6 C        3.860     0.129    18.457     6.110
    20   6 C        3.755    -0.117    22.798     6.808
    21   6 C        3.755    -0.116    22.779     6.805
    22   6 C        3.860     0.129    18.456     6.109
    23   6 C        3.755    -0.116    22.784     6.806
    24   6 C        3.755    -0.117    22.806     6.809
    25   8 O        1.638    -0.370    20.293     6.081
    26   6 C        2.897    -0.027    28.672     8.779
    27   6 C        3.860    -0.008    20.681     6.467
    28   1 H        0.925     0.047     2.358     2.402
    29   6 C        3.080    -0.022    28.465     8.747
    30   6 C        2.888    -0.038    28.950     8.821
    31   6 C        2.960    -0.028    28.689     8.785
    32   1 H        0.926     0.029     2.606     2.524
    33   1 H        0.925     0.054     2.275     2.358
    34   1 H        0.925     0.039     2.461     2.453
    35   1 H        0.925     0.051     2.311     2.377
    36   1 H        0.925     0.052     2.301     2.372
    37   1 H        0.925     0.043     2.403     2.424
    38   1 H        0.925     0.042     2.424     2.435
    39   1 H        0.925     0.039     2.457     2.451
    40   1 H        0.925     0.052     2.295     2.369
    41   1 H        0.925     0.054     2.271     2.356
    42   1 H        0.925     0.042     2.422     2.434
    43   1 H        0.925     0.052     2.301     2.372
    44   1 H        0.925     0.042     2.419     2.432
    45   1 H        0.925     0.035     2.520     2.483
    46   1 H        0.925     0.054     2.269     2.356
    47   1 H        0.925     0.040     2.455     2.450
    48   1 H        0.925     0.052     2.297     2.370
    49   1 H        0.925     0.052     2.296     2.369
    50   1 H        0.925     0.044     2.398     2.422
    51   1 H        0.925     0.042     2.419     2.432
    52   1 H        0.925     0.043     2.414     2.430
    53   1 H        0.925     0.052     2.290     2.367
    54   1 H        0.925     0.044     2.400     2.423
    55   1 H        0.925     0.040     2.451     2.448
    56   1 H        0.925     0.052     2.292     2.368
    57   1 H        0.925     0.054     2.265     2.354
    58   1 H        0.925     0.037     2.483     2.464
    59   1 H        0.926     0.036     2.503     2.474
    60   1 H        0.925     0.025     2.659     2.550

Wiberg/Mayer (AO) data.
largest (>0.10) Wiberg bond orders for each atom

     #   Z sym  total        # sym  WBO       # sym  WBO       # sym  WBO
 ---------------------------------------------------------------------------
     1   6 C    3.994 --     2 C    0.997    34 H    0.985    33 H    0.983
                            35 H    0.982
     2   6 C    3.944 --     1 C    0.997     4 C    0.990     3 O    0.954
                             5 C    0.937
     3   8 O    2.217 --     9 B    1.113     2 C    0.954
     4   6 C    3.994 --     2 C    0.990    38 H    0.985    37 H    0.984
                            36 H    0.983
     5   6 C    3.943 --     6 C    0.997     7 C    0.990     8 O    0.954
                             2 C    0.937
     6   6 C    3.994 --     5 C    0.997    39 H    0.985    41 H    0.983
                            40 H    0.982
     7   6 C    3.994 --     5 C    0.990    42 H    0.984    44 H    0.984
                            43 H    0.983
     8   8 O    2.222 --     9 B    1.118     5 C    0.954
     9   5 B    3.388 --     8 O    1.118     3 O    1.113    10 C    1.027
    10   6 C    3.930 --    11 C    1.350     9 B    1.027    27 C    0.934
                            29 C    0.346    31 C    0.150
    11   6 C    3.991 --    12 C    1.581    10 C    1.350    45 H    0.960
    12   6 C    3.967 --    11 C    1.581    13 H    0.971    14 C    0.969
                            31 C    0.217    29 C    0.140
    13   1 H    0.999 --    12 C    0.971
    14   6 C    3.993 --    16 C    0.991    31 C    0.978    15 H    0.970
                            12 C    0.969
    15   1 H    0.998 --    14 C    0.970
    16   6 C    3.977 --    26 C    1.852    17 B    0.999    14 C    0.991
    17   5 B    3.376 --    25 O    1.132    18 O    1.129    16 C    0.999
    18   8 O    2.234 --    17 B    1.129    19 C    0.953
    19   6 C    3.943 --    20 C    0.997    21 C    0.991    18 O    0.953
                            22 C    0.937
    20   6 C    3.994 --    19 C    0.997    47 H    0.985    46 H    0.983
                            48 H    0.982
    21   6 C    3.994 --    19 C    0.991    51 H    0.984    50 H    0.984
                            49 H    0.983
    22   6 C    3.942 --    24 C    0.996    23 C    0.991    25 O    0.953
                            19 C    0.937
    23   6 C    3.995 --    22 C    0.991    52 H    0.984    54 H    0.984
                            53 H    0.983
    24   6 C    3.994 --    22 C    0.996    55 H    0.984    57 H    0.983
                            56 H    0.982
    25   8 O    2.235 --    17 B    1.132    22 C    0.953
    26   6 C    3.987 --    16 C    1.852    27 C    1.021    58 H    0.966
    27   6 C    3.990 --    26 C    1.021    29 C    0.975    28 H    0.969
                            10 C    0.934
    28   1 H    0.998 --    27 C    0.969
    29   6 C    3.946 --    30 C    1.403    27 C    0.975    59 H    0.973
                            10 C    0.346    12 C    0.140
    30   6 C    3.992 --    31 C    1.545    29 C    1.403    60 H    0.963
    31   6 C    3.953 --    30 C    1.545    14 C    0.978    32 H    0.973
                            12 C    0.217    10 C    0.150
    32   1 H    0.999 --    31 C    0.973
    33   1 H    0.997 --     1 C    0.983
    34   1 H    0.998 --     1 C    0.985
    35   1 H    0.997 --     1 C    0.982
    36   1 H    0.997 --     4 C    0.983
    37   1 H    0.998 --     4 C    0.984
    38   1 H    0.998 --     4 C    0.985
    39   1 H    0.998 --     6 C    0.985
    40   1 H    0.997 --     6 C    0.982
    41   1 H    0.997 --     6 C    0.983
    42   1 H    0.998 --     7 C    0.984
    43   1 H    0.997 --     7 C    0.983
    44   1 H    0.998 --     7 C    0.984
    45   1 H    0.999 --    11 C    0.960
    46   1 H    0.997 --    20 C    0.983
    47   1 H    0.998 --    20 C    0.985
    48   1 H    0.997 --    20 C    0.982
    49   1 H    0.997 --    21 C    0.983
    50   1 H    0.998 --    21 C    0.984
    51   1 H    0.998 --    21 C    0.984
    52   1 H    0.998 --    23 C    0.984
    53   1 H    0.997 --    23 C    0.983
    54   1 H    0.998 --    23 C    0.984
    55   1 H    0.998 --    24 C    0.984
    56   1 H    0.997 --    24 C    0.982
    57   1 H    0.997 --    24 C    0.983
    58   1 H    0.998 --    26 C    0.966
    59   1 H    0.998 --    29 C    0.973
    60   1 H    0.999 --    30 C    0.963
 ---------------------------------------------------------------------------

molecular dipole:
                 x           y           z       tot (Debye)
 q only:       -0.276      -0.280       0.077
   full:       -0.106      -0.322      -0.070       0.880

           -------------------------------------------------
          | TOTAL ENERGY              -82.286362324140 Eh   |
          | GRADIENT NORM               0.000206814738 Eh/α |
          | HOMO-LUMO GAP               1.885208596872 eV   |
           -------------------------------------------------

 * finished run on 2022/07/09 at 18:33:26.501
