   * xtb version 6.5.0 (homebrew) compiled by 'nhattrup@GPGGRP-SHANNON.CHEME.CMU.EDU' on
          program call               : /opt/homebrew/bin/xtb bvl_bpin2_scan_7-6_xtb.xyz --chrg 0 --uhf 0 --opt --input xcontrol_bvl_bpin2_scan_7-6_xtb

   ID    Z sym.   atoms
    1    6 C      1, 2, 4-7, 10-12, 14, 16, 19-24, 26, 27, 29-31
    2    8 O      3, 8, 18, 25
    3    5 B      9, 17
    4    1 H      13, 15, 28, 32-60
constraining bond 12 31 to    2.2778000 Å, actual value:    2.1666486 Å
constraining bond 10 29 to    1.8333000 Å, actual value:    1.9412397 Å

          :  Hamiltonian                  GFN2-xTB          :
 * total energy  :   -82.1265709 Eh     change       -0.1813248E-08 Eh
 * total energy  :   -82.2598311 Eh     change       -0.1332602E+00 Eh
 * total energy  :   -82.3023520 Eh     change       -0.4252085E-01 Eh
 * total energy  :   -82.3030547 Eh     change       -0.7027692E-03 Eh
 * total energy  :   -82.3036970 Eh     change       -0.6422742E-03 Eh
 * total energy  :   -82.3004294 Eh     change        0.3267612E-02 Eh
 * total energy  :   -82.3040704 Eh     change       -0.3641042E-02 Eh
 * total energy  :   -82.3042454 Eh     change       -0.1750051E-03 Eh
 * total energy  :   -82.3045524 Eh     change       -0.3069521E-03 Eh
 * total energy  :   -82.3047185 Eh     change       -0.1661276E-03 Eh
 * total energy  :   -82.3047747 Eh     change       -0.5614812E-04 Eh
 * total energy  :   -82.3048132 Eh     change       -0.3857856E-04 Eh
 * total energy  :   -82.3048454 Eh     change       -0.3212557E-04 Eh
 * total energy  :   -82.3048704 Eh     change       -0.2501715E-04 Eh
 * total energy  :   -82.3048875 Eh     change       -0.1715718E-04 Eh
 * total energy  :   -82.3049015 Eh     change       -0.1397821E-04 Eh
 * total energy  :   -82.3049113 Eh     change       -0.9775026E-05 Eh
 * total energy  :   -82.3049227 Eh     change       -0.1137235E-04 Eh
 * total energy  :   -82.3049275 Eh     change       -0.4801360E-05 Eh
   *** GEOMETRY OPTIMIZATION CONVERGED AFTER 19 ITERATIONS ***

 final structure:
================
60
 xtb: 6.5.0 (homebrew)
C            3.46044893929473      -37.75709821376791       15.91708908192965
C            3.72887810462500      -38.15058730369064       17.36765920205669
O            3.26357499220815      -37.11606914332229       18.23434146604268
C            2.92262408255295      -39.41191700357224       17.70321303986774
C            5.24721806530228      -38.27835824993509       17.75250515571884
C            5.77976242071985      -39.70809262093912       17.81139107594259
C            6.16098429818310      -37.43599100905522       16.85362168391146
O            5.30005225292145      -37.69652799215826       19.05563986433918
B            4.16733161549226      -36.95680344074737       19.25245943478116
C            3.91083837665904      -36.06778989484545       20.49906098751637
C            4.92442224296290      -35.98423066966951       21.51519678803568
C            4.93604907520262      -35.22988126964650       22.62507343594529
H            5.82402786512536      -35.24816514700863       23.24331959738641
C            3.86301922187173      -34.26988059001622       23.04790941924556
H            4.09407595840610      -33.86824443977380       24.03588456952286
C            2.48048148457213      -34.87058513534062       23.10840019469264
B            1.73077869351770      -34.87158942229436       24.47625102982063
O            2.24214941059919      -34.36877693657169       25.64086948664781
C            1.36880372919508      -34.71856920836630       26.71410377169743
C            1.23983984186221      -33.53938128833105       27.67548138676619
C            2.01893895394671      -35.89790752768133       27.44904414338878
C            0.04044542221579      -35.11956145948943       25.97555655722695
C           -0.96131166042200      -33.96205896123244       25.87511871628790
C           -0.67034093347667      -36.34441673215149       26.54722079809003
O            0.48245018303555      -35.40308683049430       24.64909887317551
C            1.90928875971580      -35.43830548988049       22.04347002644197
C            2.48502106088480      -35.56680063902660       20.69413898986376
H            1.80083293386958      -36.06065576523809       20.00909834281611
C            3.21764345143048      -34.44018553513870       20.03736435492904
C            3.80797311349520      -33.32356685865710       20.69864823757703
C            4.07928717582232      -33.21043110187308       22.01035391407343
H            4.58211073511739      -32.31382807188000       22.34857229096009
H            2.38578842975606      -37.71592142418032       15.75706588500868
H            3.88858091303972      -38.49369371785769       15.24278981837105
H            3.87128535491032      -36.77802900551799       15.69280114960930
H            1.86539376734899      -39.19146507580459       17.57398438543807
H            3.08238222834019      -39.69540177927257       18.74052558153826
H            3.19369109547108      -40.23617339154350       17.05029394065750
H            5.66394820838103      -40.19359748968618       16.84608625274122
H            5.26644192561527      -40.28667957900823       18.57246109267259
H            6.83622276375599      -39.67967858362002       18.06626338232678
H            6.20588188146619      -37.84158649715692       15.84744226964301
H            7.16078077577023      -37.43633792770817       17.28161404763725
H            5.81090230899877      -36.40713940778805       16.82166139438988
H            5.80255559709404      -36.57787265227572       21.29046256931384
H            2.20497499326649      -33.35652254011905       28.14139083921997
H            0.51282871212149      -33.76595075106960       28.45083668874962
H            0.94218145946733      -32.63651603680230       27.15227111157771
H            3.00691347148328      -35.59304415612208       27.78646719504085
H            2.14075030420814      -36.73992058630501       26.77223135822833
H            1.42868943851157      -36.19875334012644       28.30943579299608
H           -1.37447280942004      -33.71434004054118       26.84830515536771
H           -1.76988404105319      -34.26372048767788       25.21325468681009
H           -0.48346593339184      -33.08667213656568       25.44264526016655
H           -0.93274388993422      -36.17576187339218       27.58813281547151
H           -0.04952375074395      -37.23078450058648       26.46769819627779
H           -1.58038699147181      -36.51921062446918       25.97874392527218
H            0.92246800188896      -35.86456764688727       22.16833872450243
H            3.11644416109489      -34.38600396738645       18.96476595728983
H            4.10742175711619      -32.51223082873401       20.04480460698464

          :  Hamiltonian                  GFN2-xTB          :
         :: total energy             -82.304927475058 Eh    ::
         :: gradient norm              0.000897554510 Eh/a0 ::
         :: HOMO-LUMO gap              3.088102415470 eV    ::
         :: SCC energy               -83.383635897639 Eh    ::
         :: -> dispersion             -0.061837141315 Eh    ::
         :: repulsion energy           1.077852880971 Eh    ::

    * Orbital Energies and Occupations

         #    Occupation            Energy/Eh            Energy/eV
      -------------------------------------------------------------
         1        2.0000           -0.6905896             -18.7919
       ...           ...                  ...                  ...
        63        2.0000           -0.4338288             -11.8051
        64        2.0000           -0.4331237             -11.7859
        65        2.0000           -0.4260357             -11.5930
        66        2.0000           -0.4224990             -11.4968
        67        2.0000           -0.4188428             -11.3973
        68        2.0000           -0.4157288             -11.3126
        69        2.0000           -0.4029130             -10.9638
        70        2.0000           -0.3993010             -10.8655
        71        2.0000           -0.3968315             -10.7983
        72        2.0000           -0.3946938             -10.7402
        73        2.0000           -0.3880490             -10.5594
        74        2.0000           -0.3550698              -9.6619
        75        2.0000           -0.3429844              -9.3331 (HOMO)
        76                         -0.2294987              -6.2450 (LUMO)
        77                         -0.2108124              -5.7365
        78                         -0.1843995              -5.0178
        79                         -0.1403843              -3.8201
        80                         -0.0959835              -2.6118
        81                         -0.0518616              -1.4112
        82                          0.0072104               0.1962
        83                          0.0104438               0.2842
        84                          0.0264160               0.7188
        85                          0.0299302               0.8144
        86                          0.0548108               1.4915
       ...                                ...                  ...
       144                          0.6813185              18.5396
      -------------------------------------------------------------
                  HL-Gap            0.1134857 Eh            3.0881 eV

     #   Z          covCN         q      C6AA      α(0)
     1   6 C        3.755    -0.117    22.794     6.808
     2   6 C        3.859     0.130    18.439     6.107
     3   8 O        1.638    -0.380    20.471     6.107
     4   6 C        3.755    -0.116    22.781     6.806
     5   6 C        3.860     0.130    18.444     6.108
     6   6 C        3.755    -0.118    22.807     6.809
     7   6 C        3.755    -0.116    22.770     6.804
     8   8 O        1.638    -0.373    20.344     6.088
     9   5 B        2.658     0.436    15.516     6.633
    10   6 C        3.664    -0.068    22.092     6.742
    11   6 C        2.890    -0.044    29.086     8.842
    12   6 C        2.958    -0.035    28.874     8.814
    13   1 H        0.925     0.024     2.670     2.555
    14   6 C        3.865    -0.015    20.801     6.486
    15   1 H        0.924     0.044     2.402     2.424
    16   6 C        2.865    -0.082    30.034     8.983
    17   5 B        2.662     0.432    15.557     6.639
    18   8 O        1.638    -0.370    20.287     6.080
    19   6 C        3.860     0.129    18.456     6.110
    20   6 C        3.755    -0.117    22.796     6.808
    21   6 C        3.755    -0.116    22.776     6.805
    22   6 C        3.859     0.129    18.453     6.109
    23   6 C        3.755    -0.116    22.781     6.806
    24   6 C        3.755    -0.117    22.803     6.809
    25   8 O        1.638    -0.372    20.328     6.086
    26   6 C        2.896    -0.028    28.708     8.785
    27   6 C        3.861    -0.006    20.643     6.461
    28   1 H        0.925     0.045     2.378     2.411
    29   6 C        3.692    -0.014    21.013     6.559
    30   6 C        2.889    -0.041    29.020     8.832
    31   6 C        2.959    -0.031    28.770     8.798
    32   1 H        0.925     0.026     2.650     2.546
    33   1 H        0.925     0.054     2.266     2.354
    34   1 H        0.925     0.040     2.451     2.448
    35   1 H        0.925     0.051     2.303     2.373
    36   1 H        0.925     0.052     2.296     2.369
    37   1 H        0.925     0.044     2.399     2.422
    38   1 H        0.925     0.043     2.413     2.429
    39   1 H        0.925     0.040     2.447     2.446
    40   1 H        0.925     0.053     2.288     2.366
    41   1 H        0.925     0.055     2.260     2.351
    42   1 H        0.925     0.043     2.411     2.428
    43   1 H        0.925     0.053     2.288     2.365
    44   1 H        0.925     0.043     2.411     2.428
    45   1 H        0.925     0.033     2.544     2.494
    46   1 H        0.925     0.054     2.268     2.355
    47   1 H        0.925     0.039     2.456     2.451
    48   1 H        0.925     0.052     2.296     2.370
    49   1 H        0.925     0.052     2.294     2.368
    50   1 H        0.925     0.044     2.401     2.423
    51   1 H        0.925     0.042     2.421     2.433
    52   1 H        0.925     0.042     2.416     2.431
    53   1 H        0.925     0.052     2.294     2.369
    54   1 H        0.925     0.044     2.401     2.423
    55   1 H        0.925     0.040     2.453     2.449
    56   1 H        0.925     0.052     2.296     2.369
    57   1 H        0.925     0.054     2.269     2.356
    58   1 H        0.925     0.038     2.480     2.462
    59   1 H        0.926     0.037     2.494     2.470
    60   1 H        0.925     0.024     2.675     2.558

Wiberg/Mayer (AO) data.
largest (>0.10) Wiberg bond orders for each atom

     #   Z sym  total        # sym  WBO       # sym  WBO       # sym  WBO
 ---------------------------------------------------------------------------
     1   6 C    3.994 --     2 C    0.997    34 H    0.984    33 H    0.983
                            35 H    0.982
     2   6 C    3.943 --     1 C    0.997     4 C    0.991     3 O    0.952
                             5 C    0.937
     3   8 O    2.219 --     9 B    1.117     2 C    0.952
     4   6 C    3.994 --     2 C    0.991    38 H    0.984    37 H    0.984
                            36 H    0.983
     5   6 C    3.942 --     6 C    0.997     7 C    0.991     8 O    0.951
                             2 C    0.937
     6   6 C    3.994 --     5 C    0.997    39 H    0.984    41 H    0.982
                            40 H    0.982
     7   6 C    3.995 --     5 C    0.991    42 H    0.984    44 H    0.984
                            43 H    0.983
     8   8 O    2.228 --     9 B    1.127     5 C    0.951
     9   5 B    3.384 --     8 O    1.127     3 O    1.117    10 C    1.016
    10   6 C    3.918 --    11 C    1.175     9 B    1.016    27 C    0.898
                            29 C    0.614
    11   6 C    3.990 --    12 C    1.754    10 C    1.175    45 H    0.962
    12   6 C    3.983 --    11 C    1.754    14 C    0.974    13 H    0.970
                            31 C    0.106
    13   1 H    0.999 --    12 C    0.970
    14   6 C    3.994 --    16 C    0.985    31 C    0.981    12 C    0.974
                            15 H    0.971
    15   1 H    0.998 --    14 C    0.971
    16   6 C    3.976 --    26 C    1.831    17 B    1.000    14 C    0.985
    17   5 B    3.375 --    18 O    1.130    25 O    1.128    16 C    1.000
    18   8 O    2.235 --    17 B    1.130    19 C    0.953
    19   6 C    3.943 --    20 C    0.997    21 C    0.991    18 O    0.953
                            22 C    0.937
    20   6 C    3.994 --    19 C    0.997    47 H    0.984    46 H    0.983
                            48 H    0.982
    21   6 C    3.994 --    19 C    0.991    51 H    0.984    50 H    0.984
                            49 H    0.983
    22   6 C    3.943 --    24 C    0.996    23 C    0.990    25 O    0.954
                            19 C    0.937
    23   6 C    3.995 --    22 C    0.990    52 H    0.984    54 H    0.984
                            53 H    0.983
    24   6 C    3.994 --    22 C    0.996    55 H    0.985    57 H    0.983
                            56 H    0.982
    25   8 O    2.233 --    17 B    1.128    22 C    0.954
    26   6 C    3.988 --    16 C    1.831    27 C    1.046    58 H    0.965
    27   6 C    3.976 --    26 C    1.046    28 H    0.968    29 C    0.952
                            10 C    0.898
    28   1 H    0.998 --    27 C    0.968
    29   6 C    3.939 --    30 C    1.202    59 H    0.974    27 C    0.952
                            10 C    0.614
    30   6 C    3.990 --    31 C    1.732    29 C    1.202    60 H    0.964
    31   6 C    3.976 --    30 C    1.732    14 C    0.981    32 H    0.971
                            12 C    0.106
    32   1 H    0.999 --    31 C    0.971
    33   1 H    0.997 --     1 C    0.983
    34   1 H    0.998 --     1 C    0.984
    35   1 H    0.997 --     1 C    0.982
    36   1 H    0.997 --     4 C    0.983
    37   1 H    0.998 --     4 C    0.984
    38   1 H    0.998 --     4 C    0.984
    39   1 H    0.998 --     6 C    0.984
    40   1 H    0.997 --     6 C    0.982
    41   1 H    0.997 --     6 C    0.982
    42   1 H    0.998 --     7 C    0.984
    43   1 H    0.997 --     7 C    0.983
    44   1 H    0.998 --     7 C    0.984
    45   1 H    0.999 --    11 C    0.962
    46   1 H    0.997 --    20 C    0.983
    47   1 H    0.998 --    20 C    0.984
    48   1 H    0.997 --    20 C    0.982
    49   1 H    0.997 --    21 C    0.983
    50   1 H    0.998 --    21 C    0.984
    51   1 H    0.998 --    21 C    0.984
    52   1 H    0.998 --    23 C    0.984
    53   1 H    0.997 --    23 C    0.983
    54   1 H    0.998 --    23 C    0.984
    55   1 H    0.998 --    24 C    0.985
    56   1 H    0.997 --    24 C    0.982
    57   1 H    0.997 --    24 C    0.983
    58   1 H    0.998 --    26 C    0.965
    59   1 H    0.998 --    29 C    0.974
    60   1 H    0.999 --    30 C    0.964
 ---------------------------------------------------------------------------

molecular dipole:
                 x           y           z       tot (Debye)
 q only:       -0.327      -0.456      -0.063
   full:       -0.268      -0.540      -0.164       1.589

           -------------------------------------------------
          | TOTAL ENERGY              -82.304927475058 Eh   |
          | GRADIENT NORM               0.000897554510 Eh/α |
          | HOMO-LUMO GAP               3.088102415470 eV   |
           -------------------------------------------------

 * finished run on 2022/07/09 at 18:33:36.789
