   * xtb version 6.5.0 (homebrew) compiled by 'nhattrup@GPGGRP-SHANNON.CHEME.CMU.EDU' on
          program call               : /opt/homebrew/bin/xtb bvl_bpin2_scan_8-2_xtb.xyz --chrg 0 --uhf 0 --opt --input xcontrol_bvl_bpin2_scan_8-2_xtb

   ID    Z sym.   atoms
    1    6 C      1, 2, 4-7, 10-12, 14, 16, 19-24, 26, 27, 29-31
    2    8 O      3, 8, 18, 25
    3    5 B      9, 17
    4    1 H      13, 15, 28, 32-60
constraining bond 12 31 to    2.3889000 Å, actual value:    2.2744846 Å
constraining bond 10 29 to    2.2778000 Å, actual value:    2.3856006 Å

          :  Hamiltonian                  GFN2-xTB          :
 * total energy  :   -82.0996218 Eh     change       -0.3454176E-08 Eh
 * total energy  :   -82.2297927 Eh     change       -0.1301710E+00 Eh
 * total energy  :   -82.2736957 Eh     change       -0.4390294E-01 Eh
 * total energy  :   -82.2743654 Eh     change       -0.6697539E-03 Eh
 * total energy  :   -82.2751651 Eh     change       -0.7996346E-03 Eh
 * total energy  :   -82.2730140 Eh     change        0.2151105E-02 Eh
 * total energy  :   -82.2755446 Eh     change       -0.2530657E-02 Eh
 * total energy  :   -82.2757938 Eh     change       -0.2491864E-03 Eh
 * total energy  :   -82.2760167 Eh     change       -0.2229187E-03 Eh
 * total energy  :   -82.2762437 Eh     change       -0.2269582E-03 Eh
 * total energy  :   -82.2766821 Eh     change       -0.1012453E-04 Eh
 * total energy  :   -82.2766933 Eh     change       -0.1120092E-04 Eh
 * total energy  :   -82.2767086 Eh     change       -0.1527744E-04 Eh
 * total energy  :   -82.2767300 Eh     change       -0.2140090E-04 Eh
 * total energy  :   -82.2767535 Eh     change       -0.2349989E-04 Eh
 * total energy  :   -82.2767713 Eh     change       -0.1781237E-04 Eh
 * total energy  :   -82.2767812 Eh     change       -0.9892089E-05 Eh
 * total energy  :   -82.2767870 Eh     change       -0.5737765E-05 Eh
 * total energy  :   -82.2767908 Eh     change       -0.3815165E-05 Eh
   *** GEOMETRY OPTIMIZATION CONVERGED AFTER 40 ITERATIONS ***

 final structure:
================
60
 xtb: 6.5.0 (homebrew)
C            3.58044719713723      -37.63179197018255       15.88468568706871
C            3.76150246543913      -38.13777969087432       17.31409751683904
O            3.28550956831499      -37.15606257376814       18.23257368541036
C            2.90031420912717      -39.39135460374168       17.51562505770768
C            5.25408074095726      -38.34683298523712       17.75847795583104
C            5.73977084449346      -39.79396195448447       17.72580843022695
C            6.23654015959406      -37.46923482973131       16.97176887933711
O            5.26117723434472      -37.87152316807138       19.10323218121947
B            4.14199773870865      -37.10554007482631       19.30400732884759
C            3.86458088866110      -36.30829593145718       20.59749923010400
C            4.89297565153069      -36.10765710283464       21.52627785268991
C            4.91811907432409      -35.30665120903151       22.62831503110571
H            5.84647205194769      -35.22100860035716       23.17478552184500
C            3.83541305302993      -34.31938307335585       23.03327762739186
H            4.07821061402674      -33.92267017488434       24.02122701472944
C            2.46191863399722      -34.93845862558778       23.11508875581328
B            1.72588706716846      -34.91951562224603       24.49019615067453
O            2.25008178961082      -34.36521759741385       25.62601769788681
C            1.39465551804363      -34.67415470410742       26.72518569996050
C            1.27113369989742      -33.45419579123846       27.63526596684189
C            2.06392971439734      -35.81478559179862       27.50253953572715
C            0.05979723299593      -35.11545577040932       26.02228016485480
C           -0.94762956881033      -33.96714576528392       25.88208153365034
C           -0.63645954969892      -36.31702065985242       26.65714284871400
O            0.48636258710481      -35.45471976473964       24.70325389200154
C            1.90336620999306      -35.51222608940657       22.04974833290956
C            2.50968081562921      -35.59848157130711       20.69121718922918
H            1.81860413595549      -36.10187765005983       20.01360594221556
C            2.94570606412884      -34.29875585056636       20.06042257324962
C            3.62784229783260      -33.27514371916325       20.69795834111715
C            3.97703780900729      -33.20056435562091       22.01855731489691
H            4.57026610526618      -32.35657093232253       22.34051910494135
H            2.51756371961225      -37.54796233844118       15.67187313783562
H            4.02590410090454      -38.32928393880291       15.18060820915986
H            4.02755739900343      -36.65152643106082       15.75547916497581
H            1.85846671432978      -39.12396626161279       17.35373820459366
H            2.99927471982004      -39.75409095309110       18.53572593991753
H            3.17703025698672      -40.17504366946370       16.81682060249408
H            5.65903606875348      -40.19476396542260       16.71900679660218
H            5.17096125200222      -40.41421910862324       18.41068009863314
H            6.78210857846331      -39.82194336269757       18.03352752818384
H            6.32171505264538      -37.80041786177700       15.94119138005959
H            7.21283269869557      -37.53388197860009       17.44677562721076
H            5.91813867601113      -36.43003867137778       17.00036780329304
H            5.79010103947117      -36.68006108613103       21.31544985817019
H            2.24097850041937      -33.24760733307717       28.08111132203740
H            0.55407864639697      -33.64870129402191       28.42829666152742
H            0.96435216376035      -32.57626485919572       27.07611321499283
H            3.05249375276708      -35.48611834375620       27.81519436841494
H            2.18669975568846      -36.68405204900360       26.86135217188500
H            1.48617287454975      -36.08331995076810       28.38184421993855
H           -1.35318420923465      -33.67930122634764       26.84735913011588
H           -1.76053284291606      -34.29874353730221       25.24020267417460
H           -0.47590898529705      -33.10972297232018       25.40869786149276
H           -0.88782040351441      -36.10282270203779       27.69245210562913
H           -0.01046559490845      -37.20214892342875       26.61071059098746
H           -1.55176114931419      -36.52328026892381       26.10798477046433
H            0.92580273727043      -35.96071014326262       22.16499751313322
H            2.85072296716227      -34.26241998448338       18.98593328655398
H            3.90214945631251      -32.43052878101429       20.07361571247116

          :  Hamiltonian                  GFN2-xTB          :
         :: total energy             -82.276790782006 Eh    ::
         :: gradient norm              0.000307143559 Eh/a0 ::
         :: HOMO-LUMO gap              1.336008312977 eV    ::
         :: SCC energy               -83.348858759645 Eh    ::
         :: -> dispersion             -0.062585582409 Eh    ::
         :: repulsion energy           1.071177396555 Eh    ::

    * Orbital Energies and Occupations

         #    Occupation            Energy/Eh            Energy/eV
      -------------------------------------------------------------
         1        2.0000           -0.6869042             -18.6916
       ...           ...                  ...                  ...
        63        2.0000           -0.4353102             -11.8454
        64        2.0000           -0.4313049             -11.7364
        65        2.0000           -0.4221609             -11.4876
        66        2.0000           -0.4198269             -11.4241
        67        2.0000           -0.4170053             -11.3473
        68        2.0000           -0.4148548             -11.2888
        69        2.0000           -0.3997724             -10.8784
        70        2.0000           -0.3984342             -10.8419
        71        2.0000           -0.3961975             -10.7811
        72        2.0000           -0.3959610             -10.7746
        73        2.0000           -0.3907109             -10.6318
        74        2.0000           -0.3654339              -9.9440
        75        2.0000           -0.3270243              -8.8988 (HOMO)
        76                         -0.2779269              -7.5628 (LUMO)
        77                         -0.2182652              -5.9393
        78                         -0.1841018              -5.0097
        79                         -0.1488779              -4.0512
        80                         -0.0947214              -2.5775
        81                         -0.0879994              -2.3946
        82                          0.0104262               0.2837
        83                          0.0130445               0.3550
        84                          0.0294274               0.8008
        85                          0.0301241               0.8197
        86                          0.0576171               1.5678
       ...                                ...                  ...
       144                          0.6772761              18.4296
      -------------------------------------------------------------
                  HL-Gap            0.0490974 Eh            1.3360 eV

     #   Z          covCN         q      C6AA      α(0)
     1   6 C        3.755    -0.116    22.786     6.806
     2   6 C        3.859     0.130    18.440     6.107
     3   8 O        1.638    -0.378    20.440     6.103
     4   6 C        3.755    -0.116    22.770     6.804
     5   6 C        3.860     0.130    18.440     6.107
     6   6 C        3.755    -0.117    22.798     6.808
     7   6 C        3.755    -0.115    22.757     6.802
     8   8 O        1.638    -0.376    20.390     6.095
     9   5 B        2.659     0.430    15.584     6.647
    10   6 C        2.934    -0.079    29.976     8.979
    11   6 C        2.891    -0.035    28.869     8.809
    12   6 C        2.908    -0.034    28.855     8.808
    13   1 H        0.926     0.028     2.614     2.528
    14   6 C        3.861    -0.015    20.804     6.487
    15   1 H        0.924     0.047     2.357     2.401
    16   6 C        2.865    -0.082    30.041     8.984
    17   5 B        2.661     0.431    15.568     6.642
    18   8 O        1.638    -0.370    20.295     6.081
    19   6 C        3.860     0.129    18.458     6.110
    20   6 C        3.755    -0.117    22.797     6.808
    21   6 C        3.755    -0.116    22.778     6.805
    22   6 C        3.860     0.129    18.456     6.110
    23   6 C        3.755    -0.116    22.784     6.806
    24   6 C        3.755    -0.117    22.805     6.809
    25   8 O        1.638    -0.370    20.293     6.081
    26   6 C        2.897    -0.027    28.671     8.779
    27   6 C        3.859    -0.009    20.707     6.472
    28   1 H        0.924     0.048     2.344     2.394
    29   6 C        2.962    -0.024    28.596     8.771
    30   6 C        2.888    -0.034    28.852     8.806
    31   6 C        2.910    -0.029    28.725     8.788
    32   1 H        0.926     0.030     2.590     2.517
    33   1 H        0.925     0.054     2.276     2.359
    34   1 H        0.925     0.039     2.463     2.454
    35   1 H        0.925     0.051     2.311     2.377
    36   1 H        0.925     0.051     2.303     2.373
    37   1 H        0.925     0.043     2.404     2.425
    38   1 H        0.925     0.042     2.425     2.435
    39   1 H        0.925     0.039     2.460     2.453
    40   1 H        0.925     0.052     2.295     2.369
    41   1 H        0.925     0.054     2.273     2.358
    42   1 H        0.925     0.042     2.424     2.435
    43   1 H        0.925     0.051     2.304     2.374
    44   1 H        0.925     0.042     2.422     2.434
    45   1 H        0.925     0.036     2.504     2.474
    46   1 H        0.925     0.054     2.271     2.356
    47   1 H        0.925     0.039     2.456     2.451
    48   1 H        0.925     0.052     2.297     2.370
    49   1 H        0.925     0.052     2.297     2.370
    50   1 H        0.925     0.044     2.398     2.422
    51   1 H        0.925     0.042     2.420     2.433
    52   1 H        0.925     0.043     2.416     2.431
    53   1 H        0.925     0.052     2.291     2.367
    54   1 H        0.925     0.044     2.401     2.423
    55   1 H        0.925     0.040     2.453     2.449
    56   1 H        0.925     0.052     2.293     2.368
    57   1 H        0.925     0.054     2.265     2.354
    58   1 H        0.925     0.037     2.487     2.466
    59   1 H        0.926     0.036     2.500     2.472
    60   1 H        0.925     0.026     2.638     2.540

Wiberg/Mayer (AO) data.
largest (>0.10) Wiberg bond orders for each atom

     #   Z sym  total        # sym  WBO       # sym  WBO       # sym  WBO
 ---------------------------------------------------------------------------
     1   6 C    3.994 --     2 C    0.997    34 H    0.985    33 H    0.983
                            35 H    0.983
     2   6 C    3.944 --     1 C    0.997     4 C    0.990     3 O    0.955
                             5 C    0.937
     3   8 O    2.216 --     9 B    1.111     2 C    0.955
     4   6 C    3.994 --     2 C    0.990    38 H    0.985    37 H    0.984
                            36 H    0.983
     5   6 C    3.943 --     6 C    0.997     7 C    0.990     8 O    0.954
                             2 C    0.937
     6   6 C    3.994 --     5 C    0.997    39 H    0.985    41 H    0.983
                            40 H    0.982
     7   6 C    3.994 --     5 C    0.990    42 H    0.985    44 H    0.984
                            43 H    0.983
     8   8 O    2.220 --     9 B    1.115     5 C    0.954
     9   5 B    3.389 --     8 O    1.115     3 O    1.111    10 C    1.031
    10   6 C    3.929 --    11 C    1.358     9 B    1.031    27 C    0.937
                            29 C    0.314    31 C    0.163
    11   6 C    3.992 --    12 C    1.582    10 C    1.358    45 H    0.960
    12   6 C    3.967 --    11 C    1.582    13 H    0.971    14 C    0.971
                            31 C    0.201    29 C    0.151
    13   1 H    0.999 --    12 C    0.971
    14   6 C    3.994 --    16 C    0.989    31 C    0.980    12 C    0.971
                            15 H    0.971
    15   1 H    0.998 --    14 C    0.971
    16   6 C    3.977 --    26 C    1.855    17 B    0.999    14 C    0.989
    17   5 B    3.376 --    25 O    1.131    18 O    1.128    16 C    0.999
    18   8 O    2.235 --    17 B    1.128    19 C    0.953
    19   6 C    3.943 --    20 C    0.997    21 C    0.991    18 O    0.953
                            22 C    0.936
    20   6 C    3.994 --    19 C    0.997    47 H    0.985    46 H    0.983
                            48 H    0.982
    21   6 C    3.994 --    19 C    0.991    51 H    0.984    50 H    0.984
                            49 H    0.983
    22   6 C    3.943 --    24 C    0.996    23 C    0.990    25 O    0.953
                            19 C    0.936
    23   6 C    3.995 --    22 C    0.990    52 H    0.985    54 H    0.984
                            53 H    0.983
    24   6 C    3.994 --    22 C    0.996    55 H    0.985    57 H    0.983
                            56 H    0.982
    25   8 O    2.235 --    17 B    1.131    22 C    0.953
    26   6 C    3.987 --    16 C    1.855    27 C    1.018    58 H    0.966
    27   6 C    3.992 --    26 C    1.018    29 C    0.979    28 H    0.969
                            10 C    0.937
    28   1 H    0.997 --    27 C    0.969
    29   6 C    3.946 --    30 C    1.417    27 C    0.979    59 H    0.973
                            10 C    0.314    12 C    0.151
    30   6 C    3.993 --    31 C    1.542    29 C    1.417    60 H    0.962
    31   6 C    3.952 --    30 C    1.542    14 C    0.980    32 H    0.973
                            12 C    0.201    10 C    0.163
    32   1 H    0.999 --    31 C    0.973
    33   1 H    0.997 --     1 C    0.983
    34   1 H    0.998 --     1 C    0.985
    35   1 H    0.997 --     1 C    0.983
    36   1 H    0.997 --     4 C    0.983
    37   1 H    0.998 --     4 C    0.984
    38   1 H    0.998 --     4 C    0.985
    39   1 H    0.998 --     6 C    0.985
    40   1 H    0.997 --     6 C    0.982
    41   1 H    0.997 --     6 C    0.983
    42   1 H    0.998 --     7 C    0.985
    43   1 H    0.997 --     7 C    0.983
    44   1 H    0.998 --     7 C    0.984
    45   1 H    0.998 --    11 C    0.960
    46   1 H    0.997 --    20 C    0.983
    47   1 H    0.998 --    20 C    0.985
    48   1 H    0.997 --    20 C    0.982
    49   1 H    0.997 --    21 C    0.983
    50   1 H    0.998 --    21 C    0.984
    51   1 H    0.998 --    21 C    0.984
    52   1 H    0.998 --    23 C    0.985
    53   1 H    0.997 --    23 C    0.983
    54   1 H    0.998 --    23 C    0.984
    55   1 H    0.998 --    24 C    0.985
    56   1 H    0.997 --    24 C    0.982
    57   1 H    0.997 --    24 C    0.983
    58   1 H    0.998 --    26 C    0.966
    59   1 H    0.998 --    29 C    0.973
    60   1 H    0.999 --    30 C    0.962
 ---------------------------------------------------------------------------

molecular dipole:
                 x           y           z       tot (Debye)
 q only:       -0.273      -0.241       0.071
   full:       -0.096      -0.271      -0.084       0.762

           -------------------------------------------------
          | TOTAL ENERGY              -82.276790782006 Eh   |
          | GRADIENT NORM               0.000307143559 Eh/α |
          | HOMO-LUMO GAP               1.336008312977 eV   |
           -------------------------------------------------

 * finished run on 2022/07/09 at 18:33:26.647
