   * xtb version 6.5.0 (homebrew) compiled by 'nhattrup@GPGGRP-SHANNON.CHEME.CMU.EDU' on
          program call               : /opt/homebrew/bin/xtb bvl_bpin2_scan_1-7_xtb.xyz --chrg 0 --uhf 0 --opt --input xcontrol_bvl_bpin2_scan_1-7_xtb

   ID    Z sym.   atoms
    1    6 C      1, 2, 4-7, 10-12, 14, 16, 19-24, 26, 27, 29-31
    2    8 O      3, 8, 18, 25
    3    5 B      9, 17
    4    1 H      13, 15, 28, 32-60
constraining bond 12 31 to    1.6111000 Å, actual value:    1.5052865 Å
constraining bond 10 29 to    1.7222000 Å, actual value:    1.8367963 Å

          :  Hamiltonian                  GFN2-xTB          :
 * total energy  :   -82.1217877 Eh     change       -0.1065970E-08 Eh
 * total energy  :   -82.2499341 Eh     change       -0.1281464E+00 Eh
 * total energy  :   -82.2948084 Eh     change       -0.4487430E-01 Eh
 * total energy  :   -82.2954774 Eh     change       -0.6689858E-03 Eh
 * total energy  :   -82.2918992 Eh     change        0.3578229E-02 Eh
 * total energy  :   -82.2957507 Eh     change       -0.3851519E-02 Eh
 * total energy  :   -82.2958017 Eh     change       -0.5095240E-04 Eh
 * total energy  :   -82.2959552 Eh     change       -0.1535251E-03 Eh
 * total energy  :   -82.2959792 Eh     change       -0.2397767E-04 Eh
 * total energy  :   -82.2960256 Eh     change       -0.4639308E-04 Eh
 * total energy  :   -82.2960357 Eh     change       -0.1017829E-04 Eh
 * total energy  :   -82.2960481 Eh     change       -0.1234170E-04 Eh
 * total energy  :   -82.2960559 Eh     change       -0.7862018E-05 Eh
 * total energy  :   -82.2960738 Eh     change       -0.1785187E-04 Eh
 * total energy  :   -82.2960793 Eh     change       -0.5489226E-05 Eh
 * total energy  :   -82.2960864 Eh     change       -0.7168444E-05 Eh
 * total energy  :   -82.2960912 Eh     change       -0.4751988E-05 Eh
 * total energy  :   -82.2960970 Eh     change       -0.5781803E-05 Eh
 * total energy  :   -82.2961002 Eh     change       -0.3254721E-05 Eh
   *** GEOMETRY OPTIMIZATION CONVERGED AFTER 19 ITERATIONS ***

 final structure:
================
60
 xtb: 6.5.0 (homebrew)
C            3.39495193517748      -37.85139646354499       15.97274381808490
C            3.68276825866001      -38.16175221655494       17.43965829075131
O            3.23697843996792      -37.07637680708924       18.25360213076579
C            2.86981878410866      -39.39259732716049       17.86035728142565
C            5.20730295508693      -38.27883021626185       17.80753617772214
C            5.72112996440739      -39.70625609050652       17.98020338342631
C            6.11892587885152      -37.52881789407693       16.82882565593935
O            5.29180181136472      -37.59485334711740       19.05915607480481
B            4.16115499752691      -36.85396950738133       19.23576029495888
C            3.93073994974870      -35.87589383483870       20.43928760322830
C            4.94788197987808      -35.78440160582841       21.39600742305367
C            5.00258348773798      -34.80082060741181       22.41038002666912
H            5.94097652312024      -34.75698707730832       22.95361817315429
C            3.83149485008786      -34.17723681895276       23.11283541863505
H            4.07198003904432      -33.79126499042452       24.09716687275230
C            2.47776724921291      -34.79099223453198       23.10028530336331
B            1.71327379791727      -34.85309947567719       24.45784725424156
O            2.20921199370556      -34.38479446059878       25.64429530448120
C            1.33825087701566      -34.79446915712483       26.69805938630379
C            1.18191188661561      -33.65707511857194       27.70463728531889
C            2.00970880014942      -35.98818709306033       27.38935288273234
C            0.02166042560023      -35.19212618326431       25.93685715171759
C           -1.00048051074828      -34.04990002220736       25.87565534546819
C           -0.66673275404115      -36.45358149404389       26.45386385599964
O            0.47519791870487      -35.41487563032616       24.60266649619503
C            1.92490716063364      -35.32309029383095       22.00829807563977
C            2.50690699169148      -35.42116929283065       20.65808329893888
H            1.82670665602461      -35.89801330036060       19.95940544602597
C            3.29305895399048      -34.32887590418024       20.02263404149645
C            3.91890039007688      -33.26967803434975       20.66674027699331
C            4.40327478077776      -33.36174828567479       21.99574652860758
H            5.01285159872835      -32.52258379147821       22.31517615836925
H            2.31846974959680      -37.80559838205324       15.82720993027208
H            3.80251225124202      -38.63378993116380       15.33850475091418
H            3.81428007972387      -36.89365936717886       15.68206792833953
H            1.81356414669546      -39.17159605158322       17.72440366161101
H            3.03438483546662      -39.60983536421792       18.91272138126320
H            3.12919077905327      -40.25933931996774       17.26003832003669
H            5.58919912087149      -40.27018655427040       17.06088274415209
H            5.20811473372917      -40.21025364068699       18.79273852923030
H            6.78020854445645      -39.67059214866509       18.22271176861478
H            6.13666621854516      -38.01471657498578       15.85805721328649
H            7.12656495258150      -37.51590501183338       17.23769617695272
H            5.78888607157032      -36.49873438833458       16.71987433502313
H            5.88262762051120      -36.25951566657476       21.13068580946054
H            2.14078382056677      -33.47631550869199       28.18415422797550
H            0.45400840417823      -33.92704738479014       28.46501331016647
H            0.87220782288623      -32.73931877578607       27.21547846617198
H            2.98785960035547      -35.67470687364531       27.74703085010995
H            2.15622173095584      -36.79846517066002       26.67952922813510
H            1.42036233334003      -36.33751247283966       28.23180278726206
H           -1.42616553397810      -33.84913798307932       26.85424048666665
H           -1.79777325906710      -34.33774503883288       25.19428169172089
H           -0.53404823879039      -33.14955915124617       25.48377320507869
H           -0.94095182255632      -36.33366064153373       27.49846878066424
H           -0.02545309082843      -37.32202496713998       26.34379268747095
H           -1.56806511376514      -36.62542120605018       25.87075452662800
H            0.93823095048995      -35.75460188950138       22.10827465842335
H            3.13288750874505      -34.22163099742198       18.95628059948987
H            4.37202971260055      -32.51047496069506       20.04255922761553

          :  Hamiltonian                  GFN2-xTB          :
         :: total energy             -82.296100230896 Eh    ::
         :: gradient norm              0.000759430630 Eh/a0 ::
         :: HOMO-LUMO gap              2.461762192867 eV    ::
         :: SCC energy               -83.368788409438 Eh    ::
         :: -> dispersion             -0.060910122052 Eh    ::
         :: repulsion energy           1.071980460654 Eh    ::

    * Orbital Energies and Occupations

         #    Occupation            Energy/Eh            Energy/eV
      -------------------------------------------------------------
         1        2.0000           -0.6928731             -18.8540
       ...           ...                  ...                  ...
        63        2.0000           -0.4374589             -11.9039
        64        2.0000           -0.4354483             -11.8492
        65        2.0000           -0.4295346             -11.6882
        66        2.0000           -0.4234399             -11.5224
        67        2.0000           -0.4186383             -11.3917
        68        2.0000           -0.4135713             -11.2538
        69        2.0000           -0.4083347             -11.1114
        70        2.0000           -0.4012989             -10.9199
        71        2.0000           -0.3990903             -10.8598
        72        2.0000           -0.3954905             -10.7618
        73        2.0000           -0.3776268             -10.2757
        74        2.0000           -0.3765912             -10.2476
        75        2.0000           -0.3152526              -8.5785 (HOMO)
        76                         -0.2247845              -6.1167 (LUMO)
        77                         -0.2191461              -5.9633
        78                         -0.1543520              -4.2001
        79                         -0.1024926              -2.7890
        80                         -0.0543811              -1.4798
        81                          0.0029314               0.0798
        82                          0.0072436               0.1971
        83                          0.0111156               0.3025
        84                          0.0248368               0.6758
        85                          0.0302032               0.8219
        86                          0.0541265               1.4729
       ...                                ...                  ...
       144                          0.6977580              18.9870
      -------------------------------------------------------------
                  HL-Gap            0.0904681 Eh            2.4618 eV

     #   Z          covCN         q      C6AA      α(0)
     1   6 C        3.755    -0.117    22.801     6.809
     2   6 C        3.859     0.129    18.448     6.108
     3   8 O        1.638    -0.375    20.371     6.092
     4   6 C        3.755    -0.117    22.789     6.807
     5   6 C        3.859     0.129    18.453     6.109
     6   6 C        3.755    -0.118    22.818     6.811
     7   6 C        3.755    -0.116    22.781     6.806
     8   8 O        1.638    -0.370    20.279     6.079
     9   5 B        2.659     0.439    15.481     6.624
    10   6 C        3.773    -0.055    21.596     6.622
    11   6 C        2.893    -0.068    29.684     8.933
    12   6 C        3.850    -0.004    20.619     6.459
    13   1 H        0.925     0.029     2.603     2.523
    14   6 C        3.864    -0.024    20.959     6.510
    15   1 H        0.925     0.041     2.433     2.439
    16   6 C        2.863    -0.084    30.096     8.992
    17   5 B        2.663     0.432    15.552     6.637
    18   8 O        1.638    -0.373    20.342     6.088
    19   6 C        3.860     0.129    18.453     6.109
    20   6 C        3.755    -0.117    22.797     6.808
    21   6 C        3.755    -0.116    22.777     6.805
    22   6 C        3.860     0.129    18.454     6.109
    23   6 C        3.755    -0.116    22.783     6.806
    24   6 C        3.755    -0.117    22.803     6.809
    25   8 O        1.638    -0.372    20.318     6.084
    26   6 C        2.896    -0.027    28.686     8.782
    27   6 C        3.863    -0.020    20.888     6.499
    28   1 H        0.925     0.042     2.420     2.433
    29   6 C        3.802    -0.003    20.629     6.466
    30   6 C        2.889    -0.075    29.876     8.961
    31   6 C        3.852    -0.003    20.591     6.454
    32   1 H        0.925     0.029     2.602     2.523
    33   1 H        0.925     0.055     2.256     2.349
    34   1 H        0.925     0.041     2.440     2.443
    35   1 H        0.925     0.052     2.297     2.370
    36   1 H        0.925     0.053     2.282     2.362
    37   1 H        0.925     0.044     2.392     2.419
    38   1 H        0.925     0.043     2.405     2.425
    39   1 H        0.925     0.041     2.436     2.441
    40   1 H        0.925     0.053     2.283     2.363
    41   1 H        0.925     0.056     2.251     2.346
    42   1 H        0.925     0.044     2.400     2.422
    43   1 H        0.925     0.053     2.277     2.360
    44   1 H        0.925     0.044     2.400     2.422
    45   1 H        0.925     0.028     2.616     2.529
    46   1 H        0.925     0.054     2.272     2.357
    47   1 H        0.925     0.039     2.456     2.451
    48   1 H        0.925     0.052     2.295     2.369
    49   1 H        0.925     0.052     2.297     2.370
    50   1 H        0.925     0.044     2.400     2.423
    51   1 H        0.925     0.042     2.421     2.433
    52   1 H        0.925     0.042     2.418     2.432
    53   1 H        0.925     0.052     2.292     2.367
    54   1 H        0.925     0.044     2.397     2.421
    55   1 H        0.925     0.040     2.455     2.450
    56   1 H        0.925     0.052     2.296     2.369
    57   1 H        0.925     0.054     2.267     2.355
    58   1 H        0.925     0.038     2.478     2.462
    59   1 H        0.925     0.031     2.567     2.506
    60   1 H        0.925     0.015     2.805     2.619

Wiberg/Mayer (AO) data.
largest (>0.10) Wiberg bond orders for each atom

     #   Z sym  total        # sym  WBO       # sym  WBO       # sym  WBO
 ---------------------------------------------------------------------------
     1   6 C    3.994 --     2 C    0.997    34 H    0.984    33 H    0.982
                            35 H    0.982
     2   6 C    3.942 --     1 C    0.997     4 C    0.991     3 O    0.950
                             5 C    0.937
     3   8 O    2.230 --     9 B    1.130     2 C    0.950
     4   6 C    3.994 --     2 C    0.991    38 H    0.984    37 H    0.984
                            36 H    0.983
     5   6 C    3.941 --     6 C    0.997     7 C    0.991     8 O    0.949
                             2 C    0.937
     6   6 C    3.994 --     5 C    0.997    39 H    0.984    41 H    0.982
                            40 H    0.982
     7   6 C    3.995 --     5 C    0.991    42 H    0.984    44 H    0.984
                            43 H    0.983
     8   8 O    2.240 --     9 B    1.141     5 C    0.949
     9   5 B    3.377 --     8 O    1.141     3 O    1.130    10 C    0.990
    10   6 C    3.940 --    11 C    1.383     9 B    0.990    27 C    0.886
                            29 C    0.510
    11   6 C    3.976 --    10 C    1.383    12 C    1.282    45 H    0.965
                            30 C    0.217
    12   6 C    3.955 --    11 C    1.282    13 H    0.971    14 C    0.907
                            31 C    0.673
    13   1 H    0.999 --    12 C    0.971
    14   6 C    3.947 --    16 C    1.019    15 H    0.969    31 C    0.921
                            12 C    0.907
    15   1 H    0.998 --    14 C    0.969
    16   6 C    3.978 --    26 C    1.820    14 C    1.019    17 B    1.000
    17   5 B    3.376 --    25 O    1.129    18 O    1.126    16 C    1.000
    18   8 O    2.231 --    17 B    1.126    19 C    0.953
    19   6 C    3.943 --    20 C    0.997    21 C    0.991    18 O    0.953
                            22 C    0.937
    20   6 C    3.994 --    19 C    0.997    47 H    0.985    46 H    0.983
                            48 H    0.982
    21   6 C    3.994 --    19 C    0.991    51 H    0.984    50 H    0.984
                            49 H    0.983
    22   6 C    3.943 --    24 C    0.996    23 C    0.991    25 O    0.953
                            19 C    0.937
    23   6 C    3.995 --    22 C    0.991    52 H    0.985    54 H    0.984
                            53 H    0.983
    24   6 C    3.994 --    22 C    0.996    55 H    0.985    57 H    0.983
                            56 H    0.982
    25   8 O    2.233 --    17 B    1.129    22 C    0.953
    26   6 C    3.989 --    16 C    1.820    27 C    1.038    58 H    0.966
    27   6 C    3.960 --    26 C    1.038    28 H    0.968    29 C    0.927
                            10 C    0.886
    28   1 H    0.998 --    27 C    0.968
    29   6 C    3.956 --    30 C    1.411    59 H    0.971    27 C    0.927
                            10 C    0.510
    30   6 C    3.964 --    29 C    1.411    31 C    1.263    60 H    0.967
                            11 C    0.217
    31   6 C    3.952 --    30 C    1.263    32 H    0.972    14 C    0.921
                            12 C    0.673
    32   1 H    0.999 --    31 C    0.972
    33   1 H    0.997 --     1 C    0.982
    34   1 H    0.998 --     1 C    0.984
    35   1 H    0.997 --     1 C    0.982
    36   1 H    0.997 --     4 C    0.983
    37   1 H    0.998 --     4 C    0.984
    38   1 H    0.998 --     4 C    0.984
    39   1 H    0.998 --     6 C    0.984
    40   1 H    0.997 --     6 C    0.982
    41   1 H    0.997 --     6 C    0.982
    42   1 H    0.998 --     7 C    0.984
    43   1 H    0.997 --     7 C    0.983
    44   1 H    0.998 --     7 C    0.984
    45   1 H    0.999 --    11 C    0.965
    46   1 H    0.997 --    20 C    0.983
    47   1 H    0.998 --    20 C    0.985
    48   1 H    0.997 --    20 C    0.982
    49   1 H    0.997 --    21 C    0.983
    50   1 H    0.998 --    21 C    0.984
    51   1 H    0.998 --    21 C    0.984
    52   1 H    0.998 --    23 C    0.985
    53   1 H    0.997 --    23 C    0.983
    54   1 H    0.998 --    23 C    0.984
    55   1 H    0.998 --    24 C    0.985
    56   1 H    0.997 --    24 C    0.982
    57   1 H    0.997 --    24 C    0.983
    58   1 H    0.998 --    26 C    0.966
    59   1 H    0.999 --    29 C    0.971
    60   1 H    0.999 --    30 C    0.967
 ---------------------------------------------------------------------------

molecular dipole:
                 x           y           z       tot (Debye)
 q only:       -0.232      -0.632      -0.037
   full:       -0.113      -0.721      -0.101       1.874

           -------------------------------------------------
          | TOTAL ENERGY              -82.296100230896 Eh   |
          | GRADIENT NORM               0.000759430630 Eh/α |
          | HOMO-LUMO GAP               2.461762192867 eV   |
           -------------------------------------------------

 * finished run on 2022/07/09 at 18:33:19.732
