   * xtb version 6.5.0 (homebrew) compiled by 'nhattrup@GPGGRP-SHANNON.CHEME.CMU.EDU' on
          program call               : /opt/homebrew/bin/xtb bvl_bpin2_scan_2-3_xtb.xyz --chrg 0 --uhf 0 --opt --input xcontrol_bvl_bpin2_scan_2-3_xtb

   ID    Z sym.   atoms
    1    6 C      1, 2, 4-7, 10-12, 14, 16, 19-24, 26, 27, 29-31
    2    8 O      3, 8, 18, 25
    3    5 B      9, 17
    4    1 H      13, 15, 28, 32-60
constraining bond 12 31 to    1.7222000 Å, actual value:    1.6082365 Å
constraining bond 10 29 to    2.1667000 Å, actual value:    2.2796087 Å

          :  Hamiltonian                  GFN2-xTB          :
 * total energy  :   -82.1339455 Eh     change       -0.2730133E-08 Eh
 * total energy  :   -82.2603596 Eh     change       -0.1264141E+00 Eh
 * total energy  :   -82.3061466 Eh     change       -0.4578705E-01 Eh
 * total energy  :   -82.3068451 Eh     change       -0.6984390E-03 Eh
 * total energy  :   -82.3033699 Eh     change        0.3475209E-02 Eh
 * total energy  :   -82.3073777 Eh     change       -0.4007831E-02 Eh
 * total energy  :   -82.3076053 Eh     change       -0.2275813E-03 Eh
 * total energy  :   -82.3078263 Eh     change       -0.2210782E-03 Eh
 * total energy  :   -82.3080343 Eh     change       -0.2079284E-03 Eh
 * total energy  :   -82.3082587 Eh     change       -0.2244092E-03 Eh
 * total energy  :   -82.3090690 Eh     change       -0.3141710E-04 Eh
 * total energy  :   -82.3090890 Eh     change       -0.1994683E-04 Eh
 * total energy  :   -82.3091041 Eh     change       -0.1513152E-04 Eh
 * total energy  :   -82.3091202 Eh     change       -0.1614699E-04 Eh
 * total energy  :   -82.3091395 Eh     change       -0.1929691E-04 Eh
 * total energy  :   -82.3091585 Eh     change       -0.1891828E-04 Eh
 * total energy  :   -82.3091732 Eh     change       -0.1473423E-04 Eh
 * total energy  :   -82.3091848 Eh     change       -0.1160512E-04 Eh
 * total energy  :   -82.3091883 Eh     change       -0.3478559E-05 Eh
   *** GEOMETRY OPTIMIZATION CONVERGED AFTER 44 ITERATIONS ***

 final structure:
================
60
 xtb: 6.5.0 (homebrew)
C            3.41440258070095      -37.87673627878205       16.00760238133735
C            3.67422331477217      -38.21535395200631       17.47396150774136
O            3.22926514822161      -37.13909246854827       18.29727732516726
C            2.84048264620185      -39.44405928272040       17.85960423145789
C            5.19135733156146      -38.35830000552603       17.86209568457352
C            5.68622507676724      -39.79592811912514       18.00603183793138
C            6.12637735433545      -37.59954665478044       16.91155572661782
O            5.26618328101041      -37.70173304372537       19.12675683084813
B            4.14388142508342      -36.93755754288341       19.29545884008238
C            3.93009869372001      -35.95780819214504       20.48610486174112
C            4.95758781388955      -35.73003711615202       21.34356439172106
C            5.02314188062150      -34.77764262802617       22.40521397567132
H            5.96961381987476      -34.70864269556459       22.92268524975047
C            3.85003495918747      -34.14116196657204       23.10492088166536
H            4.08632114926405      -33.79972338472329       24.10823007907163
C            2.49702792984627      -34.75245443832686       23.06519380205906
B            1.72481981671222      -34.84764325779890       24.41892861160217
O            2.22672767363320      -34.39910242001228       25.61041434497459
C            1.36189365396524      -34.82637512261375       26.66211166145127
C            1.20963884149155      -33.70487669589276       27.68707622558637
C            2.03983357407696      -36.02931058886442       27.33053064156841
C            0.04195166970052      -35.21369062680788       25.90116877063686
C           -0.98480109300557      -34.07456762954644       25.86937769962661
C           -0.63941386759609      -36.48622445901997       26.39952220444586
O            0.48801503833173      -35.40969483370571       24.55934762293033
C            1.96294732007673      -35.24701789961012       21.94667875643669
C            2.59123088692343      -35.27806240060726       20.59483710132212
H            1.90088767885668      -35.73457157274257       19.88524362511266
C            3.11502837214639      -33.99817351612725       20.04201268317548
C            3.86449445453351      -33.09702126977469       20.69955708737686
C            4.37381969065908      -33.23116889729226       22.03247810519796
H            5.01727193781751      -32.43243583892255       22.37427622670945
H            2.34115895406244      -37.81316158564876       15.84579036985224
H            3.82145754479955      -38.65290955727576       15.36519784043739
H            3.85145507859098      -36.91977442845951       15.74157186814102
H            1.78926322995823      -39.20924572121292       17.70841639652395
H            2.98374487191394      -39.67972162349101       18.91116573026094
H            3.10165599422665      -40.30379080992457       17.24996532747383
H            5.55787094576188      -40.33375449986434       17.07054582354792
H            5.15796148300411      -40.31475475708850       18.79925277939184
H            6.74300780710149      -39.77979735372930       18.26071844848364
H            6.15696380347618      -38.06778506225172       15.93231182732362
H            7.12692936537260      -37.60359001395179       17.33793641320199
H            5.80743210974607      -36.56466153867038       16.81658583242782
H            5.88710225634627      -36.24077798549192       21.12347480118534
H            2.16957598166276      -33.53400023304772       28.16807926033045
H            0.48226778275875      -33.98481878190727       28.44425309823806
H            0.90161363396575      -32.77874140583669       27.21283644888484
H            3.01908645200093      -35.71889693583094       27.68792509313168
H            2.18492719548267      -36.82751572414313       26.60687702750073
H            1.45597982447479      -36.39367576753906       28.17033799556223
H           -1.40378192608753      -33.89574495671128       26.85509466619292
H           -1.78615041249594      -34.35204032918487       25.18856456988904
H           -0.52541063272993      -33.16424522505380       25.49274218806862
H           -0.91309661630443      -36.38166836647679       27.44594685838947
H            0.00547174525788      -37.35022354939160       26.27705503061095
H           -1.54044531045759      -36.65369870929580       25.81477540037410
H            0.97684833349135      -35.68587271175930       22.01420579688950
H            2.89319482460317      -33.81517532599598       18.99906398619332
H            4.23709562663142      -32.24118224182588       20.14929014590006

          :  Hamiltonian                  GFN2-xTB          :
         :: total energy             -82.309188280121 Eh    ::
         :: gradient norm              0.000492699581 Eh/a0 ::
         :: HOMO-LUMO gap              3.309836507213 eV    ::
         :: SCC energy               -83.388330462288 Eh    ::
         :: -> dispersion             -0.061588031637 Eh    ::
         :: repulsion energy           1.078305465655 Eh    ::

    * Orbital Energies and Occupations

         #    Occupation            Energy/Eh            Energy/eV
      -------------------------------------------------------------
         1        2.0000           -0.6878623             -18.7177
       ...           ...                  ...                  ...
        63        2.0000           -0.4354380             -11.8489
        64        2.0000           -0.4330587             -11.7841
        65        2.0000           -0.4292351             -11.6801
        66        2.0000           -0.4199090             -11.4263
        67        2.0000           -0.4194740             -11.4145
        68        2.0000           -0.4139136             -11.2632
        69        2.0000           -0.4067839             -11.0692
        70        2.0000           -0.3975881             -10.8189
        71        2.0000           -0.3961618             -10.7801
        72        2.0000           -0.3945548             -10.7364
        73        2.0000           -0.3856509             -10.4941
        74        2.0000           -0.3520914              -9.5809
        75        2.0000           -0.3464848              -9.4283 (HOMO)
        76                         -0.2248505              -6.1185 (LUMO)
        77                         -0.2112839              -5.7493
        78                         -0.1878955              -5.1129
        79                         -0.1048936              -2.8543
        80                         -0.0952826              -2.5928
        81                         -0.0378135              -1.0290
        82                          0.0086187               0.2345
        83                          0.0111004               0.3021
        84                          0.0286198               0.7788
        85                          0.0298505               0.8123
        86                          0.0568789               1.5478
       ...                                ...                  ...
       144                          0.6890917              18.7511
      -------------------------------------------------------------
                  HL-Gap            0.1216343 Eh            3.3098 eV

     #   Z          covCN         q      C6AA      α(0)
     1   6 C        3.755    -0.117    22.791     6.807
     2   6 C        3.858     0.129    18.452     6.109
     3   8 O        1.638    -0.373    20.345     6.088
     4   6 C        3.755    -0.116    22.773     6.804
     5   6 C        3.858     0.129    18.449     6.109
     6   6 C        3.755    -0.117    22.801     6.809
     7   6 C        3.755    -0.116    22.770     6.804
     8   8 O        1.638    -0.374    20.366     6.092
     9   5 B        2.659     0.432    15.561     6.641
    10   6 C        3.046    -0.080    29.962     8.978
    11   6 C        2.894    -0.040    28.991     8.828
    12   6 C        3.801    -0.017    20.880     6.506
    13   1 H        0.926     0.031     2.567     2.506
    14   6 C        3.864    -0.012    20.748     6.478
    15   1 H        0.925     0.045     2.385     2.415
    16   6 C        2.863    -0.084    30.107     8.994
    17   5 B        2.662     0.432    15.555     6.639
    18   8 O        1.638    -0.373    20.347     6.089
    19   6 C        3.860     0.129    18.454     6.109
    20   6 C        3.755    -0.117    22.800     6.808
    21   6 C        3.755    -0.116    22.780     6.805
    22   6 C        3.860     0.129    18.456     6.110
    23   6 C        3.755    -0.116    22.786     6.806
    24   6 C        3.755    -0.118    22.808     6.810
    25   8 O        1.638    -0.370    20.279     6.079
    26   6 C        2.897    -0.026    28.654     8.777
    27   6 C        3.865    -0.014    20.782     6.483
    28   1 H        0.925     0.044     2.391     2.418
    29   6 C        3.073    -0.027    28.604     8.769
    30   6 C        2.889    -0.048    29.178     8.856
    31   6 C        3.803    -0.014    20.829     6.498
    32   1 H        0.926     0.031     2.569     2.506
    33   1 H        0.925     0.054     2.270     2.356
    34   1 H        0.925     0.039     2.460     2.453
    35   1 H        0.925     0.051     2.305     2.374
    36   1 H        0.925     0.052     2.297     2.370
    37   1 H        0.925     0.044     2.402     2.424
    38   1 H        0.925     0.042     2.424     2.435
    39   1 H        0.925     0.040     2.455     2.450
    40   1 H        0.925     0.052     2.297     2.370
    41   1 H        0.925     0.054     2.271     2.356
    42   1 H        0.925     0.042     2.419     2.432
    43   1 H        0.925     0.052     2.298     2.371
    44   1 H        0.925     0.043     2.408     2.427
    45   1 H        0.925     0.034     2.531     2.488
    46   1 H        0.925     0.054     2.270     2.356
    47   1 H        0.925     0.040     2.450     2.448
    48   1 H        0.925     0.052     2.294     2.368
    49   1 H        0.925     0.052     2.296     2.370
    50   1 H        0.925     0.044     2.399     2.422
    51   1 H        0.925     0.043     2.415     2.430
    52   1 H        0.925     0.043     2.412     2.429
    53   1 H        0.925     0.053     2.286     2.364
    54   1 H        0.925     0.044     2.397     2.421
    55   1 H        0.925     0.040     2.449     2.447
    56   1 H        0.925     0.052     2.293     2.368
    57   1 H        0.925     0.055     2.260     2.351
    58   1 H        0.925     0.037     2.488     2.467
    59   1 H        0.925     0.026     2.637     2.539
    60   1 H        0.925     0.022     2.703     2.571

Wiberg/Mayer (AO) data.
largest (>0.10) Wiberg bond orders for each atom

     #   Z sym  total        # sym  WBO       # sym  WBO       # sym  WBO
 ---------------------------------------------------------------------------
     1   6 C    3.994 --     2 C    0.997    34 H    0.985    33 H    0.983
                            35 H    0.982
     2   6 C    3.944 --     1 C    0.997     4 C    0.991     3 O    0.954
                             5 C    0.936
     3   8 O    2.228 --     9 B    1.124     2 C    0.954
     4   6 C    3.994 --     2 C    0.991    38 H    0.984    37 H    0.984
                            36 H    0.983
     5   6 C    3.942 --     6 C    0.996     7 C    0.991     8 O    0.953
                             2 C    0.936
     6   6 C    3.994 --     5 C    0.996    39 H    0.985    41 H    0.983
                            40 H    0.982
     7   6 C    3.995 --     5 C    0.991    42 H    0.985    44 H    0.984
                            43 H    0.983
     8   8 O    2.228 --     9 B    1.124     5 C    0.953
     9   5 B    3.379 --     8 O    1.124     3 O    1.124    10 C    1.008
    10   6 C    3.966 --    11 C    1.660     9 B    1.008    27 C    0.947
                            29 C    0.135
    11   6 C    3.989 --    10 C    1.660    12 C    1.201    45 H    0.963
    12   6 C    3.944 --    11 C    1.201    13 H    0.974    14 C    0.923
                            31 C    0.693
    13   1 H    0.999 --    12 C    0.974
    14   6 C    3.966 --    16 C    1.025    15 H    0.968    31 C    0.939
                            12 C    0.923
    15   1 H    0.998 --    14 C    0.968
    16   6 C    3.978 --    26 C    1.834    14 C    1.025    17 B    0.997
    17   5 B    3.376 --    25 O    1.134    18 O    1.127    16 C    0.997
    18   8 O    2.232 --    17 B    1.127    19 C    0.953
    19   6 C    3.943 --    20 C    0.997    21 C    0.991    18 O    0.953
                            22 C    0.937
    20   6 C    3.994 --    19 C    0.997    47 H    0.984    46 H    0.983
                            48 H    0.982
    21   6 C    3.994 --    19 C    0.991    51 H    0.984    50 H    0.984
                            49 H    0.983
    22   6 C    3.942 --    24 C    0.996    23 C    0.991    25 O    0.952
                            19 C    0.937
    23   6 C    3.995 --    22 C    0.991    52 H    0.984    54 H    0.984
                            53 H    0.983
    24   6 C    3.994 --    22 C    0.996    55 H    0.985    57 H    0.983
                            56 H    0.982
    25   8 O    2.237 --    17 B    1.134    22 C    0.952
    26   6 C    3.987 --    16 C    1.834    27 C    1.009    58 H    0.967
    27   6 C    3.991 --    26 C    1.009    29 C    0.973    28 H    0.970
                            10 C    0.947
    28   1 H    0.998 --    27 C    0.970
    29   6 C    3.979 --    30 C    1.730    27 C    0.973    59 H    0.970
                            10 C    0.135
    30   6 C    3.988 --    29 C    1.730    31 C    1.176    60 H    0.965
    31   6 C    3.937 --    30 C    1.176    32 H    0.975    14 C    0.939
                            12 C    0.693
    32   1 H    0.999 --    31 C    0.975
    33   1 H    0.997 --     1 C    0.983
    34   1 H    0.998 --     1 C    0.985
    35   1 H    0.997 --     1 C    0.982
    36   1 H    0.997 --     4 C    0.983
    37   1 H    0.998 --     4 C    0.984
    38   1 H    0.998 --     4 C    0.984
    39   1 H    0.998 --     6 C    0.985
    40   1 H    0.997 --     6 C    0.982
    41   1 H    0.997 --     6 C    0.983
    42   1 H    0.998 --     7 C    0.985
    43   1 H    0.997 --     7 C    0.983
    44   1 H    0.998 --     7 C    0.984
    45   1 H    0.999 --    11 C    0.963
    46   1 H    0.997 --    20 C    0.983
    47   1 H    0.998 --    20 C    0.984
    48   1 H    0.997 --    20 C    0.982
    49   1 H    0.997 --    21 C    0.983
    50   1 H    0.998 --    21 C    0.984
    51   1 H    0.998 --    21 C    0.984
    52   1 H    0.998 --    23 C    0.984
    53   1 H    0.997 --    23 C    0.983
    54   1 H    0.998 --    23 C    0.984
    55   1 H    0.998 --    24 C    0.985
    56   1 H    0.997 --    24 C    0.982
    57   1 H    0.997 --    24 C    0.983
    58   1 H    0.999 --    26 C    0.967
    59   1 H    0.999 --    29 C    0.970
    60   1 H    0.999 --    30 C    0.965
 ---------------------------------------------------------------------------

molecular dipole:
                 x           y           z       tot (Debye)
 q only:       -0.225      -0.433       0.225
   full:       -0.106      -0.513       0.178       1.406

           -------------------------------------------------
          | TOTAL ENERGY              -82.309188280121 Eh   |
          | GRADIENT NORM               0.000492699581 Eh/α |
          | HOMO-LUMO GAP               3.309836507213 eV   |
           -------------------------------------------------

 * finished run on 2022/07/09 at 18:33:04.654
