   * xtb version 6.5.0 (homebrew) compiled by 'nhattrup@GPGGRP-SHANNON.CHEME.CMU.EDU' on
          program call               : /opt/homebrew/bin/xtb bvl_bpin2_scan_2-8_xtb.xyz --chrg 0 --uhf 0 --opt --input xcontrol_bvl_bpin2_scan_2-8_xtb

   ID    Z sym.   atoms
    1    6 C      1, 2, 4-7, 10-12, 14, 16, 19-24, 26, 27, 29-31
    2    8 O      3, 8, 18, 25
    3    5 B      9, 17
    4    1 H      13, 15, 28, 32-60
constraining bond 12 31 to    1.7222000 Å, actual value:    1.6130758 Å
constraining bond 10 29 to    1.6111000 Å, actual value:    1.7243787 Å

          :  Hamiltonian                  GFN2-xTB          :
 * total energy  :   -82.1194647 Eh     change       -0.1085183E-08 Eh
 * total energy  :   -82.2510945 Eh     change       -0.1316298E+00 Eh
 * total energy  :   -82.2944294 Eh     change       -0.4333486E-01 Eh
 * total energy  :   -82.2951203 Eh     change       -0.6909612E-03 Eh
 * total energy  :   -82.2930704 Eh     change        0.2049873E-02 Eh
 * total energy  :   -82.2951645 Eh     change       -0.2094100E-02 Eh
 * total energy  :   -82.2953451 Eh     change       -0.1805998E-03 Eh
 * total energy  :   -82.2956263 Eh     change       -0.2811358E-03 Eh
 * total energy  :   -82.2956486 Eh     change       -0.2237093E-04 Eh
 * total energy  :   -82.2956998 Eh     change       -0.5116822E-04 Eh
 * total energy  :   -82.2957065 Eh     change       -0.6667269E-05 Eh
 * total energy  :   -82.2957115 Eh     change       -0.5052777E-05 Eh
 * total energy  :   -82.2957172 Eh     change       -0.5631254E-05 Eh
 * total energy  :   -82.2957222 Eh     change       -0.4991227E-05 Eh
 * total energy  :   -82.2957313 Eh     change       -0.9126558E-05 Eh
 * total energy  :   -82.2957362 Eh     change       -0.4888242E-05 Eh
 * total energy  :   -82.2957434 Eh     change       -0.7209462E-05 Eh
 * total energy  :   -82.2957478 Eh     change       -0.4447485E-05 Eh
 * total energy  :   -82.2957514 Eh     change       -0.3563669E-05 Eh
   *** GEOMETRY OPTIMIZATION CONVERGED AFTER 19 ITERATIONS ***

 final structure:
================
60
 xtb: 6.5.0 (homebrew)
C            3.39918151862273      -37.84855986165378       15.96553586302719
C            3.68468034238758      -38.14967023710273       17.43471396381034
O            3.24111391258957      -37.05657342083728       18.23999810104303
C            2.86886877406389      -39.37541357044400       17.86418464914519
C            5.20798086666482      -38.26780912081776       17.80603251669066
C            5.72018514042069      -39.69484579821115       17.98440453851861
C            6.12196745686093      -37.52247707966280       16.82606075772681
O            5.29030607788398      -37.57924719002948       19.05567771218198
B            4.16300994169537      -36.83266778155188       19.22366237435760
C            3.92937261238042      -35.83943974716259       20.41793953185659
C            4.94962821146696      -35.79330097624926       21.41313459744660
C            4.99579081129937      -34.86631134794457       22.44404498710177
H            5.93008983518252      -34.81094939420895       22.99261508552155
C            3.83394970214999      -34.18811516995320       23.09550918551918
H            4.06819360782381      -33.79938922462981       24.08173342638176
C            2.47424903105920      -34.80133551778905       23.09518510648141
B            1.71695142518409      -34.85471133646371       24.45486327127268
O            2.21453861032808      -34.38284433849473       25.63986326375731
C            1.34413860459650      -34.78957202772896       26.69508268757519
C            1.18782031877890      -33.65096081074037       27.70032005845170
C            2.01453274470372      -35.98274287972040       27.38849735401242
C            0.02649754948611      -35.18771477330422       25.93606717191420
C           -0.99543180120708      -34.04540036512997       25.87326374730658
C           -0.66221453787219      -36.44779272754054       26.45550641784197
O            0.47804016219290      -35.41433569064888       24.60250544002264
C            1.91450683111432      -35.34219055468365       22.01043312612138
C            2.48232015964988      -35.44762155436960       20.66195512360172
H            1.80822711977405      -35.92734178901247       19.96134449891902
C            3.32825567248438      -34.39457157666449       20.02561883677428
C            3.91765326840270      -33.28291810987237       20.67633010946115
C            4.35623308277463      -33.32968873585641       21.99404525106358
H            4.97092808944952      -32.49683274207474       22.31852150851165
H            2.32293611139442      -37.80211825221779       15.81852741975365
H            3.80636114944838      -38.63516889724179       15.33631603667367
H            3.82015933855514      -36.89310220589823       15.66978283762990
H            1.81304565993377      -39.15318516102489       17.72709036869734
H            3.03338726191305      -39.58567073867345       18.91800124779118
H            3.12657334898407      -40.24663364927465       17.26968717793256
H            5.58795292399170      -40.26129003000285       17.06670604788952
H            5.20650367262720      -40.19569929528330       18.79843500154644
H            6.77921311972271      -39.65908055692324       18.22709209591606
H            6.14105739535833      -38.01300486259414       15.85763057675070
H            7.12893055548795      -37.50846907568862       17.23649490809136
H            5.79268517995696      -36.49278354155448       16.71142160665893
H            5.87691249013924      -36.27695317344786       21.13789761192235
H            2.14605878619855      -33.46968866706716       28.18088876776092
H            0.45915324051303      -33.92057727106445       28.46014763975111
H            0.87821815014863      -32.73365122736081       27.21027078068090
H            2.99281216757291      -35.66987613240710       27.74637332996893
H            2.16053282093656      -36.79432100645952       26.68003875910982
H            1.42428102981589      -36.33010793099601       28.23113433584603
H           -1.42111037409120      -33.84350717001158       26.85159863045451
H           -1.79257039779014      -34.33476389780302       25.19234106960525
H           -0.52950761539952      -33.14543218046176       25.47994470545886
H           -0.93644097068670      -36.32595295772246       27.49980960506966
H           -0.02106696812887      -37.31645117716121       26.34647475585814
H           -1.56329912072862      -36.61989664083810       25.87212127239156
H            0.92858380365229      -35.77346168944567       22.12149001695904
H            3.16212462005895      -34.27327861061357       18.96080126294481
H            4.35859747802293      -32.52962855020845       20.03662186746930

          :  Hamiltonian                  GFN2-xTB          :
         :: total energy             -82.295751393265 Eh    ::
         :: gradient norm              0.000697413843 Eh/a0 ::
         :: HOMO-LUMO gap              2.488295520857 eV    ::
         :: SCC energy               -83.369001004101 Eh    ::
         :: -> dispersion             -0.061007540282 Eh    ::
         :: repulsion energy           1.072541407729 Eh    ::

    * Orbital Energies and Occupations

         #    Occupation            Energy/Eh            Energy/eV
      -------------------------------------------------------------
         1        2.0000           -0.6936644             -18.8756
       ...           ...                  ...                  ...
        63        2.0000           -0.4365477             -11.8791
        64        2.0000           -0.4363298             -11.8731
        65        2.0000           -0.4296605             -11.6917
        66        2.0000           -0.4239639             -11.5366
        67        2.0000           -0.4183026             -11.3826
        68        2.0000           -0.4128992             -11.2356
        69        2.0000           -0.4080856             -11.1046
        70        2.0000           -0.4017844             -10.9331
        71        2.0000           -0.3990094             -10.8576
        72        2.0000           -0.3950474             -10.7498
        73        2.0000           -0.3770002             -10.2587
        74        2.0000           -0.3765787             -10.2472
        75        2.0000           -0.3151659              -8.5761 (HOMO)
        76                         -0.2237228              -6.0878 (LUMO)
        77                         -0.2176975              -5.9239
        78                         -0.1520014              -4.1362
        79                         -0.1034977              -2.8163
        80                         -0.0679193              -1.8482
        81                          0.0015540               0.0423
        82                          0.0118235               0.3217
        83                          0.0133569               0.3635
        84                          0.0247549               0.6736
        85                          0.0307935               0.8379
        86                          0.0534803               1.4553
       ...                                ...                  ...
       144                          0.6971942              18.9716
      -------------------------------------------------------------
                  HL-Gap            0.0914432 Eh            2.4883 eV

     #   Z          covCN         q      C6AA      α(0)
     1   6 C        3.755    -0.117    22.804     6.809
     2   6 C        3.860     0.129    18.447     6.108
     3   8 O        1.638    -0.375    20.386     6.095
     4   6 C        3.755    -0.117    22.792     6.807
     5   6 C        3.860     0.129    18.454     6.109
     6   6 C        3.755    -0.118    22.820     6.811
     7   6 C        3.755    -0.116    22.785     6.806
     8   8 O        1.638    -0.369    20.267     6.077
     9   5 B        2.659     0.441    15.461     6.620
    10   6 C        3.823    -0.053    21.509     6.600
    11   6 C        2.893    -0.070    29.745     8.942
    12   6 C        3.799    -0.005    20.677     6.474
    13   1 H        0.925     0.028     2.609     2.526
    14   6 C        3.865    -0.021    20.913     6.503
    15   1 H        0.925     0.042     2.417     2.431
    16   6 C        2.863    -0.086    30.148     9.000
    17   5 B        2.664     0.431    15.554     6.637
    18   8 O        1.638    -0.373    20.350     6.089
    19   6 C        3.860     0.129    18.452     6.109
    20   6 C        3.755    -0.117    22.795     6.808
    21   6 C        3.755    -0.116    22.775     6.805
    22   6 C        3.860     0.129    18.453     6.109
    23   6 C        3.755    -0.116    22.781     6.806
    24   6 C        3.755    -0.117    22.802     6.809
    25   8 O        1.638    -0.372    20.329     6.086
    26   6 C        2.896    -0.026    28.647     8.776
    27   6 C        3.862    -0.022    20.928     6.506
    28   1 H        0.925     0.041     2.435     2.440
    29   6 C        3.853    -0.000    20.552     6.448
    30   6 C        2.889    -0.075    29.875     8.961
    31   6 C        3.801    -0.004    20.647     6.469
    32   1 H        0.925     0.028     2.609     2.526
    33   1 H        0.925     0.055     2.253     2.347
    34   1 H        0.925     0.041     2.438     2.442
    35   1 H        0.925     0.052     2.294     2.369
    36   1 H        0.925     0.053     2.281     2.362
    37   1 H        0.925     0.045     2.390     2.417
    38   1 H        0.925     0.044     2.402     2.424
    39   1 H        0.925     0.041     2.433     2.439
    40   1 H        0.925     0.053     2.280     2.361
    41   1 H        0.925     0.056     2.248     2.345
    42   1 H        0.925     0.044     2.397     2.421
    43   1 H        0.925     0.054     2.275     2.359
    44   1 H        0.925     0.044     2.399     2.422
    45   1 H        0.925     0.028     2.620     2.531
    46   1 H        0.925     0.054     2.274     2.358
    47   1 H        0.925     0.039     2.458     2.452
    48   1 H        0.925     0.052     2.296     2.370
    49   1 H        0.925     0.052     2.300     2.372
    50   1 H        0.925     0.044     2.401     2.423
    51   1 H        0.925     0.042     2.423     2.434
    52   1 H        0.925     0.042     2.421     2.433
    53   1 H        0.925     0.052     2.294     2.368
    54   1 H        0.925     0.044     2.398     2.422
    55   1 H        0.925     0.039     2.458     2.452
    56   1 H        0.925     0.052     2.297     2.370
    57   1 H        0.925     0.054     2.269     2.356
    58   1 H        0.925     0.038     2.471     2.458
    59   1 H        0.925     0.032     2.560     2.502
    60   1 H        0.925     0.015     2.803     2.618

Wiberg/Mayer (AO) data.
largest (>0.10) Wiberg bond orders for each atom

     #   Z sym  total        # sym  WBO       # sym  WBO       # sym  WBO
 ---------------------------------------------------------------------------
     1   6 C    3.994 --     2 C    0.997    34 H    0.984    33 H    0.982
                            35 H    0.982
     2   6 C    3.941 --     1 C    0.997     4 C    0.991     3 O    0.950
                             5 C    0.937
     3   8 O    2.230 --     9 B    1.131     2 C    0.950
     4   6 C    3.994 --     2 C    0.991    38 H    0.984    37 H    0.984
                            36 H    0.983
     5   6 C    3.940 --     6 C    0.997     7 C    0.991     8 O    0.948
                             2 C    0.937
     6   6 C    3.994 --     5 C    0.997    39 H    0.984    41 H    0.982
                            40 H    0.982
     7   6 C    3.995 --     5 C    0.991    42 H    0.984    44 H    0.984
                            43 H    0.983
     8   8 O    2.241 --     9 B    1.144     5 C    0.948
     9   5 B    3.375 --     8 O    1.144     3 O    1.131    10 C    0.987
    10   6 C    3.936 --    11 C    1.247     9 B    0.987    27 C    0.868
                            29 C    0.664
    11   6 C    3.975 --    12 C    1.427    10 C    1.247    45 H    0.965
                            30 C    0.217
    12   6 C    3.960 --    11 C    1.427    13 H    0.971    14 C    0.920
                            31 C    0.518
    13   1 H    0.999 --    12 C    0.971
    14   6 C    3.959 --    16 C    1.009    15 H    0.968    31 C    0.931
                            12 C    0.920
    15   1 H    0.998 --    14 C    0.968
    16   6 C    3.977 --    26 C    1.815    14 C    1.009    17 B    1.004
    17   5 B    3.377 --    25 O    1.127    18 O    1.124    16 C    1.004
    18   8 O    2.229 --    17 B    1.124    19 C    0.953
    19   6 C    3.943 --    20 C    0.997    21 C    0.991    18 O    0.953
                            22 C    0.936
    20   6 C    3.994 --    19 C    0.997    47 H    0.985    46 H    0.983
                            48 H    0.982
    21   6 C    3.994 --    19 C    0.991    51 H    0.984    50 H    0.984
                            49 H    0.983
    22   6 C    3.943 --    24 C    0.996    23 C    0.990    25 O    0.954
                            19 C    0.936
    23   6 C    3.995 --    22 C    0.990    52 H    0.985    54 H    0.984
                            53 H    0.983
    24   6 C    3.994 --    22 C    0.996    55 H    0.985    57 H    0.983
                            56 H    0.982
    25   8 O    2.231 --    17 B    1.127    22 C    0.954
    26   6 C    3.989 --    16 C    1.815    27 C    1.053    58 H    0.965
    27   6 C    3.948 --    26 C    1.053    28 H    0.969    29 C    0.916
                            10 C    0.868
    28   1 H    0.998 --    27 C    0.969
    29   6 C    3.952 --    30 C    1.263    59 H    0.971    27 C    0.916
                            10 C    0.664
    30   6 C    3.964 --    31 C    1.411    29 C    1.263    60 H    0.967
                            11 C    0.217
    31   6 C    3.956 --    30 C    1.411    32 H    0.972    14 C    0.931
                            12 C    0.518
    32   1 H    0.999 --    31 C    0.972
    33   1 H    0.997 --     1 C    0.982
    34   1 H    0.998 --     1 C    0.984
    35   1 H    0.997 --     1 C    0.982
    36   1 H    0.997 --     4 C    0.983
    37   1 H    0.998 --     4 C    0.984
    38   1 H    0.998 --     4 C    0.984
    39   1 H    0.998 --     6 C    0.984
    40   1 H    0.997 --     6 C    0.982
    41   1 H    0.997 --     6 C    0.982
    42   1 H    0.998 --     7 C    0.984
    43   1 H    0.997 --     7 C    0.983
    44   1 H    0.998 --     7 C    0.984
    45   1 H    0.999 --    11 C    0.965
    46   1 H    0.997 --    20 C    0.983
    47   1 H    0.998 --    20 C    0.985
    48   1 H    0.997 --    20 C    0.982
    49   1 H    0.997 --    21 C    0.983
    50   1 H    0.998 --    21 C    0.984
    51   1 H    0.998 --    21 C    0.984
    52   1 H    0.998 --    23 C    0.985
    53   1 H    0.997 --    23 C    0.983
    54   1 H    0.998 --    23 C    0.984
    55   1 H    0.998 --    24 C    0.985
    56   1 H    0.997 --    24 C    0.982
    57   1 H    0.997 --    24 C    0.983
    58   1 H    0.998 --    26 C    0.965
    59   1 H    0.998 --    29 C    0.971
    60   1 H    0.999 --    30 C    0.967
 ---------------------------------------------------------------------------

molecular dipole:
                 x           y           z       tot (Debye)
 q only:       -0.219      -0.649      -0.078
   full:       -0.106      -0.732      -0.133       1.911

           -------------------------------------------------
          | TOTAL ENERGY              -82.295751393265 Eh   |
          | GRADIENT NORM               0.000697413843 Eh/α |
          | HOMO-LUMO GAP               2.488295520857 eV   |
           -------------------------------------------------

 * finished run on 2022/07/09 at 18:33:28.000
