   * xtb version 6.5.0 (homebrew) compiled by 'nhattrup@GPGGRP-SHANNON.CHEME.CMU.EDU' on
          program call               : /opt/homebrew/bin/xtb bvl_bpin2_scan_9-4_xtb.xyz --chrg 0 --uhf 0 --opt --input xcontrol_bvl_bpin2_scan_9-4_xtb

   ID    Z sym.   atoms
    1    6 C      1, 2, 4-7, 10-12, 14, 16, 19-24, 26, 27, 29-31
    2    8 O      3, 8, 18, 25
    3    5 B      9, 17
    4    1 H      13, 15, 28, 32-60
constraining bond 12 31 to    2.5000000 Å, actual value:    2.3865154 Å
constraining bond 10 29 to    2.0556000 Å, actual value:    2.1627248 Å

          :  Hamiltonian                  GFN2-xTB          :
 * total energy  :   -82.1090870 Eh     change       -0.1168274E-08 Eh
 * total energy  :   -82.2393384 Eh     change       -0.1302513E+00 Eh
 * total energy  :   -82.2832642 Eh     change       -0.4392580E-01 Eh
 * total energy  :   -82.2838992 Eh     change       -0.6350697E-03 Eh
 * total energy  :   -82.2844881 Eh     change       -0.5888319E-03 Eh
 * total energy  :   -82.2818578 Eh     change        0.2630260E-02 Eh
 * total energy  :   -82.2849511 Eh     change       -0.3093318E-02 Eh
 * total energy  :   -82.2851416 Eh     change       -0.1904645E-03 Eh
 * total energy  :   -82.2854677 Eh     change       -0.3261372E-03 Eh
 * total energy  :   -82.2856673 Eh     change       -0.1995545E-03 Eh
 * total energy  :   -82.2858040 Eh     change       -0.6105675E-04 Eh
 * total energy  :   -82.2858533 Eh     change       -0.4926493E-04 Eh
 * total energy  :   -82.2858893 Eh     change       -0.3599138E-04 Eh
 * total energy  :   -82.2859135 Eh     change       -0.2416998E-04 Eh
 * total energy  :   -82.2859295 Eh     change       -0.1604577E-04 Eh
 * total energy  :   -82.2859451 Eh     change       -0.1556159E-04 Eh
 * total energy  :   -82.2859531 Eh     change       -0.8033451E-05 Eh
 * total energy  :   -82.2859640 Eh     change       -0.1086002E-04 Eh
 * total energy  :   -82.2859682 Eh     change       -0.4250919E-05 Eh
   *** GEOMETRY OPTIMIZATION CONVERGED AFTER 20 ITERATIONS ***

 final structure:
================
60
 xtb: 6.5.0 (homebrew)
C            3.58270446285529      -37.66562174904440       15.87454123724678
C            3.76009375446198      -38.11640854193098       17.32264207430477
O            3.29970299230380      -37.09052784623072       18.20102906446766
C            2.88124992707808      -39.34857239735518       17.57519651996998
C            5.25048935442528      -38.32935884226301       17.77401433412444
C            5.71167257117090      -39.78478319391397       17.80963601068063
C            6.24616626129056      -37.50522665495858       16.94776624739744
O            5.26811875334181      -37.79409158862848       19.09647681784549
B            4.15855184392941      -37.00937316653962       19.26921243001697
C            3.87907974299884      -36.18907526592968       20.54698812375704
C            4.87850527313481      -36.08492020162027       21.55685707174210
C            4.89081809742082      -35.31936930652318       22.66261759621746
H            5.75601897745164      -35.34657353298401       23.30815901584744
C            3.84770525142654      -34.25670232841156       22.99753599559936
H            4.09026078481042      -33.84146809377356       23.97839878848314
C            2.46952223062380      -34.87239474107085       23.09531606294517
B            1.73775207808124      -34.87103196076917       24.47348721591787
O            2.26249744211409      -34.35046754648504       25.62395023402735
C            1.41024133036706      -34.69638983223368       26.71506142135298
C            1.28518277708055      -33.50689479836180       27.66419853555681
C            2.08400766608744      -35.86053551771969       27.45288303747919
C            0.07444262572919      -35.11926639048658       26.00255381912961
C           -0.94050888079952      -33.97309178146724       25.90483825906459
C           -0.61488670848937      -36.34385755226357       26.60040831774647
O            0.49825258134238      -35.41351282984965       24.67220625889238
C            1.89989010991670      -35.45713746192090       22.03880992480515
C            2.48395206825282      -35.58152431912873       20.68411108424568
H            1.79520437793826      -36.08920694932100       20.01034815390224
C            3.07723172812477      -34.37716703038626       20.01786648991894
C            3.64600057703671      -33.26013917641766       20.66491181168659
C            3.91547138007170      -33.12414644182976       21.97952651938332
H            4.35608008529577      -32.20236740631358       22.32927502783203
H            2.52050517787925      -37.56792528416283       15.66374762434082
H            4.00930171493501      -38.40101908047402       15.19784367518040
H            4.04958426534522      -36.70115971597526       15.70265015959030
H            1.84307736183590      -39.07457884337044       17.40129283222156
H            2.97499195279620      -39.67104223780756       18.60919688275017
H            3.14715531898947      -40.16430347753975       16.90954292572026
H            5.62165409875572      -40.23421607921434       16.82432053079545
H            5.13441548576705      -40.36096649843347       18.52542006620622
H            6.75423488710221      -39.81559200156252       18.11634893469540
H            6.32175461350826      -37.88144914291531       15.93202631459603
H            7.22243046610236      -37.56760682887984       17.42306904521478
H            5.94724361282091      -36.45996629862437       16.93318827122007
H            5.72978544654928      -36.73182107997410       21.37422905623746
H            2.25574129801354      -33.30965360136838       28.11266053483540
H            0.57238650794435      -33.73030352942251       28.45349996361194
H            0.97130751155957      -32.61325853411494       27.13463200981265
H            3.07426618904079      -35.54209536689623       27.77046490331532
H            2.20319740575390      -36.70907023293907       26.78379180442483
H            1.51088566853473      -36.15710605492978       28.32623609652250
H           -1.34017694108609      -33.71786000524985       26.88170702221243
H           -1.75664141630155      -34.29077641247266       25.25998787143988
H           -0.47872787989128      -33.09826970543325       25.45417427079339
H           -0.86302634185807      -36.16405741763874       27.64298562003606
H            0.01352020261792      -37.22501306063095       26.52296809116470
H           -1.53170770218828      -36.53509611035429       26.04838625885418
H            0.92257181839618      -35.90236490646100       22.17000686736981
H            3.03353437477363      -34.38096918939944       18.94098413900538
H            3.85898338542990      -32.41828485762238       20.01365472624535

          :  Hamiltonian                  GFN2-xTB          :
         :: total energy             -82.285968212038 Eh    ::
         :: gradient norm              0.000807488671 Eh/a0 ::
         :: HOMO-LUMO gap              1.899811183136 eV    ::
         :: SCC energy               -83.359178941284 Eh    ::
         :: -> dispersion             -0.062596878165 Eh    ::
         :: repulsion energy           1.072288791552 Eh    ::

    * Orbital Energies and Occupations

         #    Occupation            Energy/Eh            Energy/eV
      -------------------------------------------------------------
         1        2.0000           -0.6882727             -18.7289
       ...           ...                  ...                  ...
        63        2.0000           -0.4354523             -11.8493
        64        2.0000           -0.4316514             -11.7458
        65        2.0000           -0.4223132             -11.4917
        66        2.0000           -0.4211008             -11.4587
        67        2.0000           -0.4179132             -11.3720
        68        2.0000           -0.4164297             -11.3316
        69        2.0000           -0.4010057             -10.9119
        70        2.0000           -0.3974688             -10.8157
        71        2.0000           -0.3963564             -10.7854
        72        2.0000           -0.3951709             -10.7531
        73        2.0000           -0.3916695             -10.6579
        74        2.0000           -0.3648601              -9.9283
        75        2.0000           -0.3288232              -8.9477 (HOMO)
        76                         -0.2590065              -7.0479 (LUMO)
        77                         -0.2190423              -5.9604
        78                         -0.1813564              -4.9350
        79                         -0.1471175              -4.0033
        80                         -0.0951121              -2.5881
        81                         -0.0834783              -2.2716
        82                          0.0098692               0.2686
        83                          0.0112004               0.3048
        84                          0.0282462               0.7686
        85                          0.0297234               0.8088
        86                          0.0569034               1.5484
       ...                                ...                  ...
       144                          0.6727687              18.3070
      -------------------------------------------------------------
                  HL-Gap            0.0698168 Eh            1.8998 eV

     #   Z          covCN         q      C6AA      α(0)
     1   6 C        3.755    -0.117    22.787     6.807
     2   6 C        3.858     0.130    18.437     6.107
     3   8 O        1.638    -0.381    20.490     6.110
     4   6 C        3.755    -0.116    22.774     6.805
     5   6 C        3.859     0.130    18.441     6.107
     6   6 C        3.755    -0.117    22.800     6.809
     7   6 C        3.755    -0.115    22.761     6.803
     8   8 O        1.638    -0.375    20.379     6.094
     9   5 B        2.657     0.431    15.576     6.646
    10   6 C        3.248    -0.073    28.741     8.681
    11   6 C        2.890    -0.038    28.934     8.819
    12   6 C        2.893    -0.041    29.011     8.831
    13   1 H        0.926     0.026     2.642     2.542
    14   6 C        3.860    -0.018    20.856     6.495
    15   1 H        0.924     0.044     2.398     2.422
    16   6 C        2.867    -0.080    29.984     8.976
    17   5 B        2.661     0.431    15.561     6.640
    18   8 O        1.638    -0.369    20.269     6.077
    19   6 C        3.860     0.129    18.458     6.110
    20   6 C        3.755    -0.117    22.797     6.808
    21   6 C        3.755    -0.116    22.777     6.805
    22   6 C        3.859     0.129    18.455     6.109
    23   6 C        3.755    -0.116    22.782     6.806
    24   6 C        3.755    -0.117    22.805     6.809
    25   8 O        1.638    -0.372    20.316     6.084
    26   6 C        2.897    -0.029    28.721     8.787
    27   6 C        3.860    -0.003    20.601     6.455
    28   1 H        0.925     0.048     2.350     2.397
    29   6 C        3.276    -0.018    27.033     8.374
    30   6 C        2.888    -0.035    28.859     8.807
    31   6 C        2.894    -0.035    28.871     8.810
    32   1 H        0.926     0.028     2.613     2.528
    33   1 H        0.925     0.054     2.274     2.358
    34   1 H        0.925     0.039     2.458     2.452
    35   1 H        0.925     0.051     2.310     2.377
    36   1 H        0.925     0.051     2.303     2.373
    37   1 H        0.925     0.043     2.404     2.425
    38   1 H        0.925     0.042     2.421     2.433
    39   1 H        0.925     0.039     2.457     2.451
    40   1 H        0.925     0.052     2.294     2.369
    41   1 H        0.925     0.054     2.269     2.355
    42   1 H        0.925     0.042     2.420     2.433
    43   1 H        0.925     0.052     2.297     2.370
    44   1 H        0.925     0.042     2.417     2.431
    45   1 H        0.925     0.036     2.504     2.474
    46   1 H        0.925     0.054     2.267     2.355
    47   1 H        0.925     0.039     2.456     2.451
    48   1 H        0.925     0.052     2.297     2.370
    49   1 H        0.925     0.052     2.293     2.368
    50   1 H        0.925     0.044     2.399     2.422
    51   1 H        0.925     0.042     2.420     2.433
    52   1 H        0.925     0.043     2.415     2.430
    53   1 H        0.925     0.052     2.293     2.368
    54   1 H        0.925     0.044     2.401     2.423
    55   1 H        0.925     0.040     2.452     2.449
    56   1 H        0.925     0.052     2.294     2.369
    57   1 H        0.925     0.054     2.268     2.355
    58   1 H        0.925     0.037     2.483     2.464
    59   1 H        0.926     0.039     2.459     2.452
    60   1 H        0.925     0.027     2.626     2.534

Wiberg/Mayer (AO) data.
largest (>0.10) Wiberg bond orders for each atom

     #   Z sym  total        # sym  WBO       # sym  WBO       # sym  WBO
 ---------------------------------------------------------------------------
     1   6 C    3.994 --     2 C    0.997    34 H    0.985    33 H    0.983
                            35 H    0.982
     2   6 C    3.943 --     1 C    0.997     4 C    0.990     3 O    0.954
                             5 C    0.937
     3   8 O    2.214 --     9 B    1.109     2 C    0.954
     4   6 C    3.994 --     2 C    0.990    38 H    0.984    37 H    0.984
                            36 H    0.983
     5   6 C    3.943 --     6 C    0.997     7 C    0.990     8 O    0.953
                             2 C    0.937
     6   6 C    3.994 --     5 C    0.997    39 H    0.985    41 H    0.983
                            40 H    0.982
     7   6 C    3.994 --     5 C    0.990    42 H    0.984    44 H    0.984
                            43 H    0.983
     8   8 O    2.222 --     9 B    1.117     5 C    0.953
     9   5 B    3.391 --     8 O    1.117     3 O    1.109    10 C    1.032
    10   6 C    3.913 --    11 C    1.227     9 B    1.032    27 C    0.914
                            29 C    0.487    31 C    0.128
    11   6 C    3.991 --    12 C    1.725    10 C    1.227    45 H    0.958
    12   6 C    3.982 --    11 C    1.725    14 C    0.976    13 H    0.971
                            29 C    0.112
    13   1 H    0.999 --    12 C    0.971
    14   6 C    3.995 --    16 C    0.983    31 C    0.982    12 C    0.976
                            15 H    0.973
    15   1 H    0.998 --    14 C    0.973
    16   6 C    3.975 --    26 C    1.837    17 B    0.998    14 C    0.983
    17   5 B    3.375 --    18 O    1.131    25 O    1.130    16 C    0.998
    18   8 O    2.236 --    17 B    1.131    19 C    0.953
    19   6 C    3.943 --    20 C    0.997    21 C    0.991    18 O    0.953
                            22 C    0.936
    20   6 C    3.994 --    19 C    0.997    47 H    0.984    46 H    0.983
                            48 H    0.982
    21   6 C    3.994 --    19 C    0.991    51 H    0.984    50 H    0.984
                            49 H    0.983
    22   6 C    3.943 --    24 C    0.996    23 C    0.990    25 O    0.953
                            19 C    0.936
    23   6 C    3.995 --    22 C    0.990    52 H    0.984    54 H    0.984
                            53 H    0.983
    24   6 C    3.994 --    22 C    0.996    55 H    0.985    57 H    0.983
                            56 H    0.982
    25   8 O    2.234 --    17 B    1.130    22 C    0.953
    26   6 C    3.988 --    16 C    1.837    27 C    1.036    58 H    0.966
    27   6 C    3.986 --    26 C    1.036    29 C    0.970    28 H    0.967
                            10 C    0.914
    28   1 H    0.998 --    27 C    0.967
    29   6 C    3.934 --    30 C    1.269    59 H    0.973    27 C    0.970
                            10 C    0.487    12 C    0.112
    30   6 C    3.992 --    31 C    1.692    29 C    1.269    60 H    0.960
    31   6 C    3.970 --    30 C    1.692    14 C    0.982    32 H    0.972
                            10 C    0.128
    32   1 H    0.999 --    31 C    0.972
    33   1 H    0.997 --     1 C    0.983
    34   1 H    0.998 --     1 C    0.985
    35   1 H    0.997 --     1 C    0.982
    36   1 H    0.997 --     4 C    0.983
    37   1 H    0.998 --     4 C    0.984
    38   1 H    0.998 --     4 C    0.984
    39   1 H    0.998 --     6 C    0.985
    40   1 H    0.997 --     6 C    0.982
    41   1 H    0.997 --     6 C    0.983
    42   1 H    0.998 --     7 C    0.984
    43   1 H    0.997 --     7 C    0.983
    44   1 H    0.998 --     7 C    0.984
    45   1 H    0.999 --    11 C    0.958
    46   1 H    0.997 --    20 C    0.983
    47   1 H    0.998 --    20 C    0.984
    48   1 H    0.997 --    20 C    0.982
    49   1 H    0.997 --    21 C    0.983
    50   1 H    0.998 --    21 C    0.984
    51   1 H    0.998 --    21 C    0.984
    52   1 H    0.998 --    23 C    0.984
    53   1 H    0.997 --    23 C    0.983
    54   1 H    0.998 --    23 C    0.984
    55   1 H    0.998 --    24 C    0.985
    56   1 H    0.997 --    24 C    0.982
    57   1 H    0.997 --    24 C    0.983
    58   1 H    0.998 --    26 C    0.966
    59   1 H    0.998 --    29 C    0.973
    60   1 H    0.999 --    30 C    0.960
 ---------------------------------------------------------------------------

molecular dipole:
                 x           y           z       tot (Debye)
 q only:       -0.333      -0.348       0.001
   full:       -0.233      -0.422      -0.122       1.263

           -------------------------------------------------
          | TOTAL ENERGY              -82.285968212038 Eh   |
          | GRADIENT NORM               0.000807488671 Eh/α |
          | HOMO-LUMO GAP               1.899811183136 eV   |
           -------------------------------------------------

 * finished run on 2022/07/09 at 18:33:36.846
