   * xtb version 6.5.0 (homebrew) compiled by 'nhattrup@GPGGRP-SHANNON.CHEME.CMU.EDU' on
          program call               : /opt/homebrew/bin/xtb bvl_bpin2_scan_2-6_xtb.xyz --chrg 0 --uhf 0 --opt --input xcontrol_bvl_bpin2_scan_2-6_xtb

   ID    Z sym.   atoms
    1    6 C      1, 2, 4-7, 10-12, 14, 16, 19-24, 26, 27, 29-31
    2    8 O      3, 8, 18, 25
    3    5 B      9, 17
    4    1 H      13, 15, 28, 32-60
constraining bond 12 31 to    1.7222000 Å, actual value:    1.6109430 Å
constraining bond 10 29 to    1.8333000 Å, actual value:    1.9477053 Å

          :  Hamiltonian                  GFN2-xTB          :
 * total energy  :   -82.1225945 Eh     change       -0.1057813E-08 Eh
 * total energy  :   -82.2559819 Eh     change       -0.1333874E+00 Eh
 * total energy  :   -82.2982602 Eh     change       -0.4227831E-01 Eh
 * total energy  :   -82.2990016 Eh     change       -0.7414066E-03 Eh
 * total energy  :   -82.2945783 Eh     change        0.4423358E-02 Eh
 * total energy  :   -82.2994336 Eh     change       -0.4855357E-02 Eh
 * total energy  :   -82.2995561 Eh     change       -0.1224726E-03 Eh
 * total energy  :   -82.2996595 Eh     change       -0.1034123E-03 Eh
 * total energy  :   -82.2997200 Eh     change       -0.6054590E-04 Eh
 * total energy  :   -82.2997920 Eh     change       -0.7192680E-04 Eh
 * total energy  :   -82.2998508 Eh     change       -0.1550328E-04 Eh
 * total energy  :   -82.2998683 Eh     change       -0.1756751E-04 Eh
 * total energy  :   -82.2998831 Eh     change       -0.1482316E-04 Eh
 * total energy  :   -82.2998938 Eh     change       -0.1065707E-04 Eh
 * total energy  :   -82.2999031 Eh     change       -0.9333238E-05 Eh
 * total energy  :   -82.2999086 Eh     change       -0.5493088E-05 Eh
 * total energy  :   -82.2999206 Eh     change       -0.1200520E-04 Eh
 * total energy  :   -82.2999244 Eh     change       -0.3804158E-05 Eh
 * total energy  :   -82.2999280 Eh     change       -0.3569640E-05 Eh
   *** GEOMETRY OPTIMIZATION CONVERGED AFTER 21 ITERATIONS ***

 final structure:
================
60
 xtb: 6.5.0 (homebrew)
C            3.45936244286646      -37.75933877001855       15.93064009058433
C            3.71051726818354      -38.15648908467532       17.38379578164562
O            3.23917121628003      -37.12211731570230       18.24718286354100
C            2.89275045549631      -39.41361086529491       17.70621853027336
C            5.22673032604236      -38.29091306544564       17.78160823317818
C            5.73807195374086      -39.72544765978944       17.89518440389240
C            6.16213508558934      -37.49573412916036       16.86239418520455
O            5.28307208695598      -37.66808231673928       19.06518224988907
B            4.14622842852149      -36.93695919832776       19.25403075427700
C            3.90391969990016      -36.00264385617666       20.48249458449881
C            4.93707938864685      -35.84830557588698       21.40031566136789
C            4.98210925975065      -34.90451626359138       22.43808889340474
H            5.92801970542554      -34.81539092285840       22.95791125242384
C            3.81595383552371      -34.24534132623483       23.11134519410608
H            4.05983750208959      -33.85483480211104       24.09474102219201
C            2.46256563112899      -34.86616147316148       23.12413236297625
B            1.70561484959319      -34.89192856863996       24.48783185385395
O            2.21030017114290      -34.38318040528727       25.65353313097000
C            1.34163749573547      -34.74600670330538       26.72623145741648
C            1.19584509028944      -33.56803261415812       27.68681561673841
C            2.00953332484447      -35.91490849270164       27.46180886710536
C            0.01986906310163      -35.16614461982644       25.98623106396557
C           -0.99686568077815      -34.02195277797291       25.88487796238365
C           -0.67279522936561      -36.40274503698065       26.55466790245094
O            0.46645830476432      -35.44229889896231       24.65930401640298
C            1.90867542405494      -35.41450758574950       22.04181726106008
C            2.49417302258515      -35.51140672110002       20.68809914909182
H            1.80931509486742      -36.00024763656717       19.99998476891479
C            3.19466584606667      -34.36862379581856       20.04354300198055
C            3.84962135201489      -33.33153141354907       20.67266443585370
C            4.31547146421373      -33.37877993358116       21.99976750109606
H            4.93821427155957      -32.54891683753180       22.31087405705672
H            2.38684516822156      -37.70436735406844       15.76082413500789
H            3.88353835671109      -38.50257087358595       15.26114274624764
H            3.88487376804362      -36.78611226611458       15.70832813098766
H            1.83952417541573      -39.18947675225051       17.55304975529905
H            3.02827437102809      -39.69416879828228       18.74760080148792
H            3.17448556763898      -40.24118113690069       17.06214812409750
H            5.63296319128209      -40.24119491181941       16.94458821456065
H            5.20407083777619      -40.27135600470094       18.66601595964044
H            6.78999030130043      -39.70152906716616       18.16838275038978
H            6.19940216736358      -37.93035772851375       15.86818918039784
H            7.16060042020089      -37.50981026011083       17.29328570825144
H            5.83935831828866      -36.45948208983970       16.80069401607030
H            5.88065228091071      -36.29628582054342       21.11670045145260
H            2.15750786685434      -33.37398591938481       28.15546744400358
H            0.46910282020655      -33.80223729568350       28.46002911649207
H            0.89006226636476      -32.66880550968333       27.16200612907205
H            2.99125125791972      -35.59329615954996       27.80208779001637
H            2.14778530826489      -36.75392701610294       26.78446605414087
H            1.42232108181314      -36.22662097305668       28.32034244002585
H           -1.41627668519569      -33.78033104428671       26.85690286633330
H           -1.79925695944494      -34.33261259844311       25.21972525087233
H           -0.52828335817231      -33.14020978777045       25.45508836458312
H           -0.94279682177166      -36.24014147049883       27.59459084297255
H           -0.03632502954543      -37.27816481383609       26.47699467915191
H           -1.57698850381244      -36.59271081089167       25.98173885767374
H            0.92487276961446      -35.85123302863525       22.14762935990774
H            3.03404691712147      -34.28086691950274       18.97714846601674
H            4.28480999476979      -32.56691492187096       20.04129425505126

          :  Hamiltonian                  GFN2-xTB          :
         :: total energy             -82.299928004598 Eh    ::
         :: gradient norm              0.000655448682 Eh/a0 ::
         :: HOMO-LUMO gap              2.793240747791 eV    ::
         :: SCC energy               -83.375321715143 Eh    ::
         :: -> dispersion             -0.060876073561 Eh    ::
         :: repulsion energy           1.074744020236 Eh    ::

    * Orbital Energies and Occupations

         #    Occupation            Energy/Eh            Energy/eV
      -------------------------------------------------------------
         1        2.0000           -0.6907417             -18.7960
       ...           ...                  ...                  ...
        63        2.0000           -0.4367047             -11.8833
        64        2.0000           -0.4341916             -11.8150
        65        2.0000           -0.4306992             -11.7199
        66        2.0000           -0.4221670             -11.4877
        67        2.0000           -0.4192037             -11.4071
        68        2.0000           -0.4143168             -11.2741
        69        2.0000           -0.4079873             -11.1019
        70        2.0000           -0.3996866             -10.8760
        71        2.0000           -0.3974158             -10.8142
        72        2.0000           -0.3955020             -10.7622
        73        2.0000           -0.3803395             -10.3496
        74        2.0000           -0.3665364              -9.9740
        75        2.0000           -0.3272277              -8.9043 (HOMO)
        76                         -0.2245780              -6.1111 (LUMO)
        77                         -0.2105902              -5.7305
        78                         -0.1644950              -4.4761
        79                         -0.1054496              -2.8694
        80                         -0.0856041              -2.3294
        81                         -0.0217674              -0.5923
        82                          0.0057060               0.1553
        83                          0.0098128               0.2670
        84                          0.0263487               0.7170
        85                          0.0294751               0.8021
        86                          0.0560761               1.5259
       ...                                ...                  ...
       144                          0.6966747              18.9575
      -------------------------------------------------------------
                  HL-Gap            0.1026497 Eh            2.7932 eV

     #   Z          covCN         q      C6AA      α(0)
     1   6 C        3.755    -0.117    22.796     6.808
     2   6 C        3.857     0.129    18.449     6.109
     3   8 O        1.638    -0.375    20.377     6.093
     4   6 C        3.755    -0.116    22.783     6.806
     5   6 C        3.859     0.129    18.452     6.109
     6   6 C        3.755    -0.118    22.812     6.810
     7   6 C        3.755    -0.116    22.776     6.805
     8   8 O        1.638    -0.371    20.307     6.083
     9   5 B        2.657     0.437    15.513     6.633
    10   6 C        3.657    -0.063    22.013     6.734
    11   6 C        2.892    -0.060    29.499     8.905
    12   6 C        3.800    -0.011    20.773     6.489
    13   1 H        0.925     0.030     2.593     2.518
    14   6 C        3.865    -0.018    20.854     6.494
    15   1 H        0.925     0.043     2.408     2.427
    16   6 C        2.863    -0.084    30.085     8.991
    17   5 B        2.662     0.432    15.553     6.638
    18   8 O        1.638    -0.373    20.335     6.087
    19   6 C        3.860     0.129    18.454     6.109
    20   6 C        3.755    -0.117    22.798     6.808
    21   6 C        3.755    -0.116    22.778     6.805
    22   6 C        3.860     0.129    18.455     6.109
    23   6 C        3.755    -0.116    22.784     6.806
    24   6 C        3.755    -0.117    22.805     6.809
    25   8 O        1.638    -0.371    20.303     6.082
    26   6 C        2.896    -0.027    28.664     8.778
    27   6 C        3.864    -0.016    20.815     6.488
    28   1 H        0.925     0.043     2.413     2.429
    29   6 C        3.686    -0.010    20.957     6.554
    30   6 C        2.888    -0.067    29.664     8.929
    31   6 C        3.803    -0.009    20.730     6.482
    32   1 H        0.925     0.030     2.593     2.518
    33   1 H        0.925     0.055     2.262     2.352
    34   1 H        0.925     0.040     2.447     2.446
    35   1 H        0.925     0.051     2.303     2.373
    36   1 H        0.925     0.053     2.288     2.365
    37   1 H        0.925     0.044     2.395     2.420
    38   1 H        0.925     0.043     2.412     2.429
    39   1 H        0.925     0.040     2.442     2.444
    40   1 H        0.925     0.052     2.289     2.366
    41   1 H        0.925     0.055     2.257     2.349
    42   1 H        0.925     0.043     2.408     2.427
    43   1 H        0.925     0.053     2.284     2.363
    44   1 H        0.925     0.043     2.403     2.424
    45   1 H        0.925     0.029     2.598     2.520
    46   1 H        0.925     0.054     2.271     2.356
    47   1 H        0.925     0.040     2.454     2.450
    48   1 H        0.925     0.052     2.295     2.369
    49   1 H        0.925     0.052     2.296     2.370
    50   1 H        0.925     0.044     2.399     2.422
    51   1 H        0.925     0.042     2.419     2.432
    52   1 H        0.925     0.043     2.416     2.430
    53   1 H        0.925     0.052     2.290     2.366
    54   1 H        0.925     0.044     2.397     2.421
    55   1 H        0.925     0.040     2.452     2.449
    56   1 H        0.925     0.052     2.294     2.369
    57   1 H        0.925     0.054     2.265     2.353
    58   1 H        0.925     0.038     2.478     2.462
    59   1 H        0.925     0.031     2.565     2.505
    60   1 H        0.925     0.017     2.777     2.606

Wiberg/Mayer (AO) data.
largest (>0.10) Wiberg bond orders for each atom

     #   Z sym  total        # sym  WBO       # sym  WBO       # sym  WBO
 ---------------------------------------------------------------------------
     1   6 C    3.994 --     2 C    0.997    34 H    0.984    33 H    0.982
                            35 H    0.982
     2   6 C    3.942 --     1 C    0.997     4 C    0.991     3 O    0.952
                             5 C    0.936
     3   8 O    2.228 --     9 B    1.127     2 C    0.952
     4   6 C    3.994 --     2 C    0.991    38 H    0.984    37 H    0.984
                            36 H    0.983
     5   6 C    3.941 --     6 C    0.997     7 C    0.991     8 O    0.951
                             2 C    0.936
     6   6 C    3.994 --     5 C    0.997    39 H    0.984    41 H    0.982
                            40 H    0.982
     7   6 C    3.995 --     5 C    0.991    42 H    0.984    44 H    0.984
                            43 H    0.983
     8   8 O    2.237 --     9 B    1.134     5 C    0.951
     9   5 B    3.379 --     8 O    1.134     3 O    1.127    10 C    0.999
    10   6 C    3.943 --    11 C    1.429     9 B    0.999    27 C    0.907
                            29 C    0.415
    11   6 C    3.981 --    10 C    1.429    12 C    1.326    45 H    0.964
                            30 C    0.145
    12   6 C    3.953 --    11 C    1.326    13 H    0.973    14 C    0.924
                            31 C    0.589
    13   1 H    0.999 --    12 C    0.973
    14   6 C    3.963 --    16 C    1.014    15 H    0.968    31 C    0.935
                            12 C    0.924
    15   1 H    0.998 --    14 C    0.968
    16   6 C    3.978 --    26 C    1.830    14 C    1.014    17 B    0.999
    17   5 B    3.376 --    25 O    1.131    18 O    1.127    16 C    0.999
    18   8 O    2.232 --    17 B    1.127    19 C    0.953
    19   6 C    3.943 --    20 C    0.997    21 C    0.991    18 O    0.953
                            22 C    0.937
    20   6 C    3.994 --    19 C    0.997    47 H    0.985    46 H    0.983
                            48 H    0.982
    21   6 C    3.994 --    19 C    0.991    51 H    0.984    50 H    0.984
                            49 H    0.983
    22   6 C    3.942 --    24 C    0.996    23 C    0.991    25 O    0.953
                            19 C    0.937
    23   6 C    3.995 --    22 C    0.991    52 H    0.984    54 H    0.984
                            53 H    0.983
    24   6 C    3.994 --    22 C    0.996    55 H    0.985    57 H    0.983
                            56 H    0.982
    25   8 O    2.234 --    17 B    1.131    22 C    0.953
    26   6 C    3.988 --    16 C    1.830    27 C    1.030    58 H    0.966
    27   6 C    3.972 --    26 C    1.030    28 H    0.968    29 C    0.943
                            10 C    0.907
    28   1 H    0.998 --    27 C    0.968
    29   6 C    3.959 --    30 C    1.469    59 H    0.971    27 C    0.943
                            10 C    0.415
    30   6 C    3.973 --    29 C    1.469    31 C    1.305    60 H    0.966
                            11 C    0.145
    31   6 C    3.949 --    30 C    1.305    32 H    0.973    14 C    0.935
                            12 C    0.589
    32   1 H    0.999 --    31 C    0.973
    33   1 H    0.997 --     1 C    0.982
    34   1 H    0.998 --     1 C    0.984
    35   1 H    0.997 --     1 C    0.982
    36   1 H    0.997 --     4 C    0.983
    37   1 H    0.998 --     4 C    0.984
    38   1 H    0.998 --     4 C    0.984
    39   1 H    0.998 --     6 C    0.984
    40   1 H    0.997 --     6 C    0.982
    41   1 H    0.997 --     6 C    0.982
    42   1 H    0.998 --     7 C    0.984
    43   1 H    0.997 --     7 C    0.983
    44   1 H    0.998 --     7 C    0.984
    45   1 H    0.999 --    11 C    0.964
    46   1 H    0.997 --    20 C    0.983
    47   1 H    0.998 --    20 C    0.985
    48   1 H    0.997 --    20 C    0.982
    49   1 H    0.997 --    21 C    0.983
    50   1 H    0.998 --    21 C    0.984
    51   1 H    0.998 --    21 C    0.984
    52   1 H    0.998 --    23 C    0.984
    53   1 H    0.997 --    23 C    0.983
    54   1 H    0.998 --    23 C    0.984
    55   1 H    0.998 --    24 C    0.985
    56   1 H    0.997 --    24 C    0.982
    57   1 H    0.997 --    24 C    0.983
    58   1 H    0.998 --    26 C    0.966
    59   1 H    0.999 --    29 C    0.971
    60   1 H    0.999 --    30 C    0.966
 ---------------------------------------------------------------------------

molecular dipole:
                 x           y           z       tot (Debye)
 q only:       -0.246      -0.503       0.042
   full:       -0.122      -0.571      -0.034       1.488

           -------------------------------------------------
          | TOTAL ENERGY              -82.299928004598 Eh   |
          | GRADIENT NORM               0.000655448682 Eh/α |
          | HOMO-LUMO GAP               2.793240747791 eV   |
           -------------------------------------------------

 * finished run on 2022/07/09 at 18:33:19.581
