   * xtb version 6.5.0 (homebrew) compiled by 'nhattrup@GPGGRP-SHANNON.CHEME.CMU.EDU' on
          program call               : /opt/homebrew/bin/xtb bvl_bpin2_scan_3-3_xtb.xyz --chrg 0 --uhf 0 --opt --input xcontrol_bvl_bpin2_scan_3-3_xtb

   ID    Z sym.   atoms
    1    6 C      1, 2, 4-7, 10-12, 14, 16, 19-24, 26, 27, 29-31
    2    8 O      3, 8, 18, 25
    3    5 B      9, 17
    4    1 H      13, 15, 28, 32-60
constraining bond 12 31 to    1.8333000 Å, actual value:    1.7172683 Å
constraining bond 10 29 to    2.1667000 Å, actual value:    2.2787853 Å

          :  Hamiltonian                  GFN2-xTB          :
 * total energy  :   -82.1256122 Eh     change       -0.1127603E-08 Eh
 * total energy  :   -82.2558753 Eh     change       -0.1302631E+00 Eh
 * total energy  :   -82.2996506 Eh     change       -0.4377530E-01 Eh
 * total energy  :   -82.3003881 Eh     change       -0.7375099E-03 Eh
 * total energy  :   -82.2978937 Eh     change        0.2494413E-02 Eh
 * total energy  :   -82.3007054 Eh     change       -0.2811687E-02 Eh
 * total energy  :   -82.3010352 Eh     change       -0.3298593E-03 Eh
 * total energy  :   -82.3013900 Eh     change       -0.3547927E-03 Eh
 * total energy  :   -82.3015336 Eh     change       -0.1436332E-03 Eh
 * total energy  :   -82.3018213 Eh     change       -0.2876678E-03 Eh
 * total energy  :   -82.3025734 Eh     change       -0.1497617E-04 Eh
 * total energy  :   -82.3025829 Eh     change       -0.9534679E-05 Eh
 * total energy  :   -82.3025924 Eh     change       -0.9465220E-05 Eh
 * total energy  :   -82.3026041 Eh     change       -0.1169952E-04 Eh
 * total energy  :   -82.3026164 Eh     change       -0.1238652E-04 Eh
 * total energy  :   -82.3026266 Eh     change       -0.1012594E-04 Eh
 * total energy  :   -82.3026347 Eh     change       -0.8159380E-05 Eh
 * total energy  :   -82.3026425 Eh     change       -0.7808727E-05 Eh
 * total energy  :   -82.3026447 Eh     change       -0.2126681E-05 Eh
   *** GEOMETRY OPTIMIZATION CONVERGED AFTER 44 ITERATIONS ***

 final structure:
================
60
 xtb: 6.5.0 (homebrew)
C            3.43175590669409      -37.82722038728365       15.97829887203754
C            3.69395816823659      -38.20417670309838       17.43479669613032
O            3.23758690468747      -37.15631850310641       18.28766360159862
C            2.87290490870051      -39.45188277256759       17.78519885640458
C            5.21185900978169      -38.34282973028589       17.82057955372906
C            5.72283396575149      -39.77872511485158       17.91728949111189
C            6.13901635329500      -37.54253593806394       16.89668364905031
O            5.27738120608775      -37.72747360477820       19.10619439489482
B            4.14764329497629      -36.97821703615098       19.29544633348413
C            3.91953751583637      -36.04133308391548       20.51446598344347
C            4.94978916345231      -35.81136321463571       21.37977996047069
C            5.00341548835469      -34.89807633133957       22.45502851920318
H            5.95304937119648      -34.79259682161930       22.95920348399019
C            3.84082777085711      -34.19923939835600       23.10458236393735
H            4.07512313051623      -33.84539733132181       24.10544851174315
C            2.48168201834305      -34.80882065628904       23.08511392858079
B            1.71354902408940      -34.87081286343283       24.44259260190467
O            2.22110057444790      -34.39335523509218       25.62034141747601
C            1.35546053456471      -34.78406223382765       26.68528763010003
C            1.21192311549572      -33.63108131093483       27.67609376332208
C            2.02710859865053      -35.97035066376401       27.38886348411484
C            0.03194594688187      -35.18592985421574       25.93797221675135
C           -0.98899459358400      -34.04280775317487       25.87572921590103
C           -0.65504302509142      -36.43997509437827       26.47410303813921
O            0.47407968460808      -35.42213953734662       24.60126976148615
C            1.94546653722165      -35.32039753618473       21.97621284984879
C            2.57348241214872      -35.36666720688231       20.62571028822495
H            1.88441463759510      -35.83272324230875       19.92105822605741
C            3.09539986728076      -34.09064186674026       20.05313455291216
C            3.84258024077208      -33.17173627441397       20.70347791420644
C            4.31109069107212      -33.25700386543773       22.03836798656544
H            4.97917069228336      -32.47504583621179       22.36956853531953
H            2.35801441602780      -37.76974482473838       15.81748254008863
H            3.84686211852849      -38.58103070598084       15.31474714960061
H            3.85947379184977      -36.85891697408383       15.73949607007567
H            1.81923564469985      -39.22317600852445       17.64187678317445
H            3.01988740219162      -39.71638027395586       18.82938048561959
H            3.14186030023023      -40.29097312061500       17.15070380230521
H            5.59858181648769      -40.28727124807114       16.96501764346858
H            5.20150017703643      -40.32866992009286       18.69394548673707
H            6.77984715896131      -39.75954212447292       18.17084187169727
H            6.17616610643538      -37.97854387679035       15.90288489708382
H            7.13916581423053      -37.54833447277991       17.32403063671709
H            5.80762371057093      -36.50904083099195       16.83459767361815
H            5.88437090626868      -36.30585290635960       21.14290573322728
H            2.17455695067703      -33.45003492773620       28.14792862751396
H            0.48630643856919      -33.88430361537577       28.44427005491917
H            0.90629779803304      -32.71844175645450       27.17488657091897
H            3.00870868844800      -35.65520946281665       27.73552243629091
H            2.16634134030563      -36.79103325705188       26.68963076475213
H            1.44231065209263      -36.30557224224091       28.24007969897449
H           -1.40363570990255      -33.83252011649424       26.85706573998951
H           -1.79413618676974      -34.33616227155679       25.20614616798803
H           -0.52623517488966      -33.14654693536402       25.47055302287680
H           -0.92445023926589      -36.30436804069638       27.51808149171795
H           -0.01561578213996      -37.31087291202401       26.37390925354783
H           -1.55912519508279      -36.61857810507939       25.89743009766818
H            0.95878706655736      -35.75707728599380       22.05022480829546
H            2.90208653655884      -33.94176722522946       18.99992341071180
H            4.22785433808360      -32.33607755641071       20.13062939827908

          :  Hamiltonian                  GFN2-xTB          :
         :: total energy             -82.302644664243 Eh    ::
         :: gradient norm              0.000270268412 Eh/a0 ::
         :: HOMO-LUMO gap              3.228465911236 eV    ::
         :: SCC energy               -83.381078963611 Eh    ::
         :: -> dispersion             -0.061662066456 Eh    ::
         :: repulsion energy           1.077622161163 Eh    ::

    * Orbital Energies and Occupations

         #    Occupation            Energy/Eh            Energy/eV
      -------------------------------------------------------------
         1        2.0000           -0.6878379             -18.7170
       ...           ...                  ...                  ...
        63        2.0000           -0.4349838             -11.8365
        64        2.0000           -0.4315375             -11.7427
        65        2.0000           -0.4293341             -11.6828
        66        2.0000           -0.4201332             -11.4324
        67        2.0000           -0.4193789             -11.4119
        68        2.0000           -0.4143116             -11.2740
        69        2.0000           -0.4059188             -11.0456
        70        2.0000           -0.3974968             -10.8164
        71        2.0000           -0.3958074             -10.7705
        72        2.0000           -0.3936265             -10.7111
        73        2.0000           -0.3866643             -10.5217
        74        2.0000           -0.3502493              -9.5308
        75        2.0000           -0.3468891              -9.4393 (HOMO)
        76                         -0.2282452              -6.2109 (LUMO)
        77                         -0.2141888              -5.8284
        78                         -0.1898196              -5.1653
        79                         -0.1121672              -3.0522
        80                         -0.0975488              -2.6544
        81                         -0.0616277              -1.6770
        82                          0.0086054               0.2342
        83                          0.0118941               0.3237
        84                          0.0285756               0.7776
        85                          0.0301604               0.8207
        86                          0.0568001               1.5456
       ...                                ...                  ...
       144                          0.6886082              18.7380
      -------------------------------------------------------------
                  HL-Gap            0.1186439 Eh            3.2285 eV

     #   Z          covCN         q      C6AA      α(0)
     1   6 C        3.755    -0.117    22.789     6.807
     2   6 C        3.859     0.129    18.449     6.109
     3   8 O        1.638    -0.374    20.368     6.092
     4   6 C        3.755    -0.116    22.772     6.804
     5   6 C        3.859     0.129    18.448     6.108
     6   6 C        3.755    -0.117    22.799     6.808
     7   6 C        3.755    -0.115    22.766     6.803
     8   8 O        1.638    -0.375    20.375     6.093
     9   5 B        2.659     0.432    15.563     6.642
    10   6 C        3.048    -0.081    29.982     8.980
    11   6 C        2.893    -0.041    29.019     8.832
    12   6 C        3.689    -0.019    21.097     6.574
    13   1 H        0.926     0.031     2.572     2.508
    14   6 C        3.864    -0.010    20.716     6.472
    15   1 H        0.925     0.046     2.365     2.405
    16   6 C        2.863    -0.084    30.105     8.994
    17   5 B        2.661     0.432    15.560     6.640
    18   8 O        1.638    -0.373    20.340     6.088
    19   6 C        3.859     0.129    18.455     6.109
    20   6 C        3.755    -0.117    22.800     6.808
    21   6 C        3.755    -0.116    22.780     6.805
    22   6 C        3.860     0.129    18.456     6.110
    23   6 C        3.755    -0.117    22.787     6.806
    24   6 C        3.755    -0.118    22.808     6.810
    25   8 O        1.638    -0.369    20.275     6.078
    26   6 C        2.897    -0.025    28.633     8.773
    27   6 C        3.864    -0.014    20.776     6.482
    28   1 H        0.924     0.045     2.384     2.414
    29   6 C        3.075    -0.027    28.601     8.768
    30   6 C        2.888    -0.047    29.171     8.855
    31   6 C        3.691    -0.015    21.032     6.563
    32   1 H        0.926     0.031     2.570     2.507
    33   1 H        0.925     0.054     2.272     2.357
    34   1 H        0.925     0.039     2.462     2.454
    35   1 H        0.925     0.051     2.307     2.375
    36   1 H        0.925     0.052     2.299     2.371
    37   1 H        0.925     0.043     2.403     2.424
    38   1 H        0.925     0.042     2.426     2.436
    39   1 H        0.925     0.039     2.457     2.451
    40   1 H        0.925     0.052     2.297     2.370
    41   1 H        0.925     0.054     2.272     2.357
    42   1 H        0.925     0.042     2.421     2.433
    43   1 H        0.925     0.052     2.300     2.372
    44   1 H        0.925     0.043     2.411     2.428
    45   1 H        0.925     0.034     2.535     2.490
    46   1 H        0.925     0.054     2.270     2.356
    47   1 H        0.925     0.040     2.451     2.448
    48   1 H        0.925     0.052     2.295     2.369
    49   1 H        0.925     0.052     2.296     2.370
    50   1 H        0.925     0.044     2.398     2.422
    51   1 H        0.925     0.043     2.415     2.430
    52   1 H        0.925     0.043     2.412     2.429
    53   1 H        0.925     0.053     2.286     2.364
    54   1 H        0.925     0.044     2.397     2.421
    55   1 H        0.925     0.040     2.449     2.447
    56   1 H        0.925     0.052     2.293     2.368
    57   1 H        0.925     0.055     2.261     2.351
    58   1 H        0.925     0.037     2.483     2.464
    59   1 H        0.926     0.028     2.618     2.530
    60   1 H        0.925     0.022     2.700     2.569

Wiberg/Mayer (AO) data.
largest (>0.10) Wiberg bond orders for each atom

     #   Z sym  total        # sym  WBO       # sym  WBO       # sym  WBO
 ---------------------------------------------------------------------------
     1   6 C    3.994 --     2 C    0.997    34 H    0.985    33 H    0.983
                            35 H    0.982
     2   6 C    3.944 --     1 C    0.997     4 C    0.990     3 O    0.954
                             5 C    0.936
     3   8 O    2.226 --     9 B    1.121     2 C    0.954
     4   6 C    3.994 --     2 C    0.990    38 H    0.984    37 H    0.984
                            36 H    0.983
     5   6 C    3.943 --     6 C    0.996     7 C    0.990     8 O    0.954
                             2 C    0.936
     6   6 C    3.994 --     5 C    0.996    39 H    0.985    41 H    0.983
                            40 H    0.982
     7   6 C    3.995 --     5 C    0.990    42 H    0.985    44 H    0.984
                            43 H    0.983
     8   8 O    2.226 --     9 B    1.122     5 C    0.954
     9   5 B    3.380 --     8 O    1.122     3 O    1.121    10 C    1.013
    10   6 C    3.961 --    11 C    1.600     9 B    1.013    27 C    0.945
                            29 C    0.170
    11   6 C    3.989 --    10 C    1.600    12 C    1.271    45 H    0.962
    12   6 C    3.943 --    11 C    1.271    13 H    0.974    14 C    0.935
                            31 C    0.591
    13   1 H    0.999 --    12 C    0.974
    14   6 C    3.974 --    16 C    1.016    15 H    0.967    31 C    0.949
                            12 C    0.935
    15   1 H    0.997 --    14 C    0.967
    16   6 C    3.977 --    26 C    1.840    14 C    1.016    17 B    0.998
    17   5 B    3.376 --    25 O    1.134    18 O    1.127    16 C    0.998
    18   8 O    2.232 --    17 B    1.127    19 C    0.953
    19   6 C    3.943 --    20 C    0.997    21 C    0.991    18 O    0.953
                            22 C    0.936
    20   6 C    3.994 --    19 C    0.997    47 H    0.984    46 H    0.983
                            48 H    0.982
    21   6 C    3.994 --    19 C    0.991    51 H    0.984    50 H    0.984
                            49 H    0.983
    22   6 C    3.942 --    24 C    0.996    23 C    0.991    25 O    0.952
                            19 C    0.936
    23   6 C    3.995 --    22 C    0.991    52 H    0.984    54 H    0.984
                            53 H    0.983
    24   6 C    3.994 --    22 C    0.996    55 H    0.984    57 H    0.983
                            56 H    0.982
    25   8 O    2.237 --    17 B    1.134    22 C    0.952
    26   6 C    3.987 --    16 C    1.840    27 C    1.011    58 H    0.967
    27   6 C    3.991 --    26 C    1.011    29 C    0.973    28 H    0.969
                            10 C    0.945
    28   1 H    0.998 --    27 C    0.969
    29   6 C    3.975 --    30 C    1.668    27 C    0.973    59 H    0.971
                            10 C    0.170
    30   6 C    3.988 --    29 C    1.668    31 C    1.243    60 H    0.964
    31   6 C    3.935 --    30 C    1.243    32 H    0.975    14 C    0.949
                            12 C    0.591
    32   1 H    0.999 --    31 C    0.975
    33   1 H    0.997 --     1 C    0.983
    34   1 H    0.998 --     1 C    0.985
    35   1 H    0.997 --     1 C    0.982
    36   1 H    0.997 --     4 C    0.983
    37   1 H    0.998 --     4 C    0.984
    38   1 H    0.998 --     4 C    0.984
    39   1 H    0.998 --     6 C    0.985
    40   1 H    0.997 --     6 C    0.982
    41   1 H    0.997 --     6 C    0.983
    42   1 H    0.998 --     7 C    0.985
    43   1 H    0.997 --     7 C    0.983
    44   1 H    0.998 --     7 C    0.984
    45   1 H    0.999 --    11 C    0.962
    46   1 H    0.997 --    20 C    0.983
    47   1 H    0.998 --    20 C    0.984
    48   1 H    0.997 --    20 C    0.982
    49   1 H    0.997 --    21 C    0.983
    50   1 H    0.998 --    21 C    0.984
    51   1 H    0.998 --    21 C    0.984
    52   1 H    0.998 --    23 C    0.984
    53   1 H    0.997 --    23 C    0.983
    54   1 H    0.998 --    23 C    0.984
    55   1 H    0.998 --    24 C    0.984
    56   1 H    0.997 --    24 C    0.982
    57   1 H    0.997 --    24 C    0.983
    58   1 H    0.998 --    26 C    0.967
    59   1 H    0.999 --    29 C    0.971
    60   1 H    0.999 --    30 C    0.964
 ---------------------------------------------------------------------------

molecular dipole:
                 x           y           z       tot (Debye)
 q only:       -0.238      -0.370       0.234
   full:       -0.093      -0.434       0.160       1.199

           -------------------------------------------------
          | TOTAL ENERGY              -82.302644664243 Eh   |
          | GRADIENT NORM               0.000270268412 Eh/α |
          | HOMO-LUMO GAP               3.228465911236 eV   |
           -------------------------------------------------

 * finished run on 2022/07/09 at 18:33:08.447
