   * xtb version 6.5.0 (homebrew) compiled by 'nhattrup@GPGGRP-SHANNON.CHEME.CMU.EDU' on
          program call               : /opt/homebrew/bin/xtb bvl_bpin2_scan_6-9_xtb.xyz --chrg 0 --uhf 0 --opt --input xcontrol_bvl_bpin2_scan_6-9_xtb

   ID    Z sym.   atoms
    1    6 C      1, 2, 4-7, 10-12, 14, 16, 19-24, 26, 27, 29-31
    2    8 O      3, 8, 18, 25
    3    5 B      9, 17
    4    1 H      13, 15, 28, 32-60
constraining bond 12 31 to    2.1667000 Å, actual value:    2.0589987 Å
constraining bond 10 29 to    1.5000000 Å, actual value:    1.6102998 Å

          :  Hamiltonian                  GFN2-xTB          :
 * total energy  :   -82.1402147 Eh     change       -0.8332819E-09 Eh
 * total energy  :   -82.2633903 Eh     change       -0.1231756E+00 Eh
 * total energy  :   -82.3116637 Eh     change       -0.4827343E-01 Eh
 * total energy  :   -82.3123020 Eh     change       -0.6382463E-03 Eh
 * total energy  :   -82.3127287 Eh     change       -0.4266944E-03 Eh
 * total energy  :   -82.3087486 Eh     change        0.3980062E-02 Eh
 * total energy  :   -82.3132171 Eh     change       -0.4468491E-02 Eh
 * total energy  :   -82.3133993 Eh     change       -0.1822234E-03 Eh
 * total energy  :   -82.3136969 Eh     change       -0.2975520E-03 Eh
 * total energy  :   -82.3138747 Eh     change       -0.1778207E-03 Eh
 * total energy  :   -82.3139379 Eh     change       -0.6316348E-04 Eh
 * total energy  :   -82.3139749 Eh     change       -0.3706811E-04 Eh
 * total energy  :   -82.3140081 Eh     change       -0.3313129E-04 Eh
 * total energy  :   -82.3140313 Eh     change       -0.2323147E-04 Eh
 * total energy  :   -82.3140469 Eh     change       -0.1557477E-04 Eh
 * total energy  :   -82.3140592 Eh     change       -0.1235595E-04 Eh
 * total energy  :   -82.3140658 Eh     change       -0.6532737E-05 Eh
 * total energy  :   -82.3140762 Eh     change       -0.1045287E-04 Eh
 * total energy  :   -82.3140804 Eh     change       -0.4221261E-05 Eh
   *** GEOMETRY OPTIMIZATION CONVERGED AFTER 19 ITERATIONS ***

 final structure:
================
60
 xtb: 6.5.0 (homebrew)
C            3.48264927511339      -37.74575220749482       15.88466695681830
C            3.72765779983922      -38.12181076622491       17.34386582564718
O            3.26822625520795      -37.06424199404855       18.18759788534799
C            2.89757564424302      -39.36399972486416       17.69008792661792
C            5.23901891865649      -38.26475862935327       17.75047145764435
C            5.74869117802109      -39.70018614718654       17.84903361398462
C            6.17718399232422      -37.45677293282374       16.84550723028281
O            5.28441112767490      -37.65165822292608       19.04153104477153
B            4.16446296970094      -36.89139194884012       19.20522404818385
C            3.91794634378587      -35.90348701491045       20.40271743345050
C            4.93027917921186      -35.92937476318240       21.46686517136377
C            4.94200173629542      -35.20185034335893       22.58606207014806
H            5.81808100257064      -35.27960012161872       23.22109327451253
C            3.86311140485222      -34.30410725314434       23.07100597743793
H            4.09659801755683      -33.91613247800917       24.06260850818883
C            2.48337304428576      -34.91205201060647       23.11890224214633
B            1.73339760938136      -34.90547488354304       24.48347954673600
O            2.23422902644619      -34.36670908662656       25.63820009304119
C            1.36446472447913      -34.70308880795346       26.71765056975635
C            1.21166982936076      -33.50106074079967       27.64712248677500
C            2.03362381913017      -35.84974020898939       27.48673386025769
C            0.04502595145991      -35.14740305098174       25.98754298824885
C           -0.98020864555436      -34.01302564525488       25.86118116710462
C           -0.64196588512167      -36.37190306617858       26.58878377971370
O            0.49293285004325      -35.45375322058602       24.66853685820467
C            1.90977278447960      -35.47559975808930       22.04960703279625
C            2.44768269028610      -35.59490895840123       20.69857103004798
H            1.77260395317275      -36.08172772485085       20.00535897909952
C            3.32992339197730      -34.56485698444111       20.05335219902192
C            3.83060901171809      -33.37284649471894       20.73239660497138
C            4.11255488191746      -33.27396578282464       22.03376437669950
H            4.56720695404022      -32.35098777361405       22.37734815154631
H            2.41073137125367      -37.68831186808449       15.71208825173150
H            3.90517333374412      -38.49922164618494       15.22575370840906
H            3.91272557340950      -36.77721038116095       15.65105949802707
H            1.84583240387545      -39.13018136227308       17.54150439453955
H            3.03816456544895      -39.63188330617287       18.73426741317700
H            3.16557491826743      -40.20330293773907       17.05541345076449
H            5.63761709645257      -40.20493435447418       16.89311518341673
H            5.21708373096782      -40.25408153086941       18.61581670674000
H            6.80221676447414      -39.68188071804032       18.11651082369821
H            6.22717542207171      -37.88446820830363       15.84878710227552
H            7.17177505485859      -37.46430905327050       17.28523526920889
H            5.84479952887948      -36.42326226583171       16.78721712608275
H            5.79573151936358      -36.53343210971214       21.22866062979228
H            2.17245700477660      -33.28775342996271       28.10912637842546
H            0.48782342814422      -33.72042049116934       28.42753855825438
H            0.89809449295927      -32.61812054549516       27.09975465916343
H            3.01453486479930      -35.51712568940748       27.81863597092557
H            2.17352428517833      -36.70765624992814       26.83384421389309
H            1.44614726931994      -36.13778068740084       28.35338602808731
H           -1.39675406170717      -33.75067100966866       26.82913934232835
H           -1.78375203391143      -34.34675395917549       25.20862722782837
H           -0.52124018696076      -33.13853430813262       25.40706829090828
H           -0.90880470531649      -36.18260066467294       27.62504173732950
H           -0.00363851870166      -37.24750335270564       26.53179576548266
H           -1.54778882939568      -36.57882602591988       26.02434148118799
H            0.92284546942335      -35.90052436094188       22.18282836788402
H            3.13489784999296      -34.41095623438144       18.99702923789242
H            4.09603155177610      -32.55105450247490       20.07928279197859

          :  Hamiltonian                  GFN2-xTB          :
         :: total energy             -82.314080428263 Eh    ::
         :: gradient norm              0.000868200717 Eh/a0 ::
         :: HOMO-LUMO gap              3.239067565570 eV    ::
         :: SCC energy               -83.403524588168 Eh    ::
         :: -> dispersion             -0.062051302131 Eh    ::
         :: repulsion energy           1.088624864291 Eh    ::

    * Orbital Energies and Occupations

         #    Occupation            Energy/Eh            Energy/eV
      -------------------------------------------------------------
         1        2.0000           -0.6942210             -18.8907
       ...           ...                  ...                  ...
        63        2.0000           -0.4374286             -11.9030
        64        2.0000           -0.4351977             -11.8423
        65        2.0000           -0.4293271             -11.6826
        66        2.0000           -0.4243656             -11.5476
        67        2.0000           -0.4177921             -11.3687
        68        2.0000           -0.4106757             -11.1751
        69        2.0000           -0.4040768             -10.9955
        70        2.0000           -0.4015300             -10.9262
        71        2.0000           -0.3982689             -10.8374
        72        2.0000           -0.3944239             -10.7328
        73        2.0000           -0.3821178             -10.3980
        74        2.0000           -0.3610058              -9.8235
        75        2.0000           -0.3410035              -9.2792 (HOMO)
        76                         -0.2219699              -6.0401 (LUMO)
        77                         -0.1954469              -5.3184
        78                         -0.1736823              -4.7261
        79                         -0.1448935              -3.9428
        80                         -0.0941012              -2.5606
        81                          0.0001827               0.0050
        82                          0.0124910               0.3399
        83                          0.0193900               0.5276
        84                          0.0276673               0.7529
        85                          0.0314151               0.8548
        86                          0.0525306               1.4294
       ...                                ...                  ...
       144                          0.6848209              18.6349
      -------------------------------------------------------------
                  HL-Gap            0.1190335 Eh            3.2391 eV

     #   Z          covCN         q      C6AA      α(0)
     1   6 C        3.755    -0.118    22.806     6.809
     2   6 C        3.859     0.130    18.443     6.108
     3   8 O        1.638    -0.377    20.414     6.099
     4   6 C        3.755    -0.117    22.790     6.807
     5   6 C        3.861     0.129    18.451     6.109
     6   6 C        3.755    -0.118    22.817     6.811
     7   6 C        3.755    -0.117    22.787     6.807
     8   8 O        1.638    -0.370    20.287     6.080
     9   5 B        2.658     0.441    15.457     6.620
    10   6 C        3.835    -0.057    21.566     6.607
    11   6 C        2.892    -0.051    29.257     8.868
    12   6 C        3.069    -0.027    28.609     8.770
    13   1 H        0.925     0.023     2.685     2.562
    14   6 C        3.867    -0.015    20.800     6.485
    15   1 H        0.925     0.043     2.406     2.426
    16   6 C        2.865    -0.087    30.187     9.006
    17   5 B        2.660     0.431    15.570     6.643
    18   8 O        1.638    -0.372    20.329     6.086
    19   6 C        3.859     0.129    18.453     6.109
    20   6 C        3.755    -0.117    22.791     6.807
    21   6 C        3.755    -0.116    22.769     6.804
    22   6 C        3.858     0.129    18.450     6.109
    23   6 C        3.755    -0.116    22.776     6.805
    24   6 C        3.755    -0.117    22.798     6.808
    25   8 O        1.638    -0.374    20.359     6.091
    26   6 C        2.895    -0.027    28.672     8.779
    27   6 C        3.860    -0.018    20.864     6.496
    28   1 H        0.925     0.040     2.454     2.450
    29   6 C        3.866    -0.004    20.605     6.455
    30   6 C        2.890    -0.048    29.184     8.857
    31   6 C        3.070    -0.025    28.545     8.760
    32   1 H        0.925     0.024     2.675     2.558
    33   1 H        0.925     0.055     2.253     2.347
    34   1 H        0.925     0.041     2.438     2.442
    35   1 H        0.925     0.052     2.292     2.368
    36   1 H        0.925     0.053     2.283     2.363
    37   1 H        0.925     0.044     2.390     2.418
    38   1 H        0.925     0.044     2.401     2.423
    39   1 H        0.925     0.041     2.432     2.439
    40   1 H        0.925     0.053     2.280     2.361
    41   1 H        0.925     0.056     2.248     2.345
    42   1 H        0.925     0.044     2.396     2.421
    43   1 H        0.925     0.054     2.274     2.358
    44   1 H        0.925     0.044     2.401     2.423
    45   1 H        0.925     0.032     2.556     2.500
    46   1 H        0.925     0.054     2.274     2.358
    47   1 H        0.925     0.039     2.463     2.454
    48   1 H        0.925     0.052     2.300     2.372
    49   1 H        0.925     0.052     2.300     2.372
    50   1 H        0.925     0.043     2.405     2.425
    51   1 H        0.925     0.042     2.428     2.437
    52   1 H        0.925     0.042     2.423     2.434
    53   1 H        0.925     0.052     2.300     2.371
    54   1 H        0.925     0.044     2.402     2.424
    55   1 H        0.925     0.039     2.459     2.452
    56   1 H        0.925     0.052     2.301     2.372
    57   1 H        0.925     0.054     2.275     2.359
    58   1 H        0.925     0.037     2.495     2.470
    59   1 H        0.925     0.032     2.556     2.500
    60   1 H        0.925     0.022     2.700     2.570

Wiberg/Mayer (AO) data.
largest (>0.10) Wiberg bond orders for each atom

     #   Z sym  total        # sym  WBO       # sym  WBO       # sym  WBO
 ---------------------------------------------------------------------------
     1   6 C    3.994 --     2 C    0.997    34 H    0.984    33 H    0.982
                            35 H    0.982
     2   6 C    3.941 --     1 C    0.997     4 C    0.991     3 O    0.949
                             5 C    0.937
     3   8 O    2.228 --     9 B    1.131     2 C    0.949
     4   6 C    3.994 --     2 C    0.991    38 H    0.984    37 H    0.984
                            36 H    0.983
     5   6 C    3.940 --     6 C    0.997     7 C    0.991     8 O    0.948
                             2 C    0.937
     6   6 C    3.994 --     5 C    0.997    39 H    0.984    41 H    0.982
                            40 H    0.982
     7   6 C    3.995 --     5 C    0.991    42 H    0.984    44 H    0.984
                            43 H    0.983
     8   8 O    2.237 --     9 B    1.142     5 C    0.948
     9   5 B    3.375 --     8 O    1.142     3 O    1.131    10 C    0.986
    10   6 C    3.932 --    11 C    1.080     9 B    0.986    27 C    0.852
                            29 C    0.845
    11   6 C    3.988 --    12 C    1.822    10 C    1.080    45 H    0.965
    12   6 C    3.987 --    11 C    1.822    14 C    0.974    13 H    0.967
    13   1 H    0.999 --    12 C    0.967
    14   6 C    3.992 --    16 C    0.980    31 C    0.979    12 C    0.974
                            15 H    0.970
    15   1 H    0.998 --    14 C    0.970
    16   6 C    3.976 --    26 C    1.804    17 B    1.007    14 C    0.980
    17   5 B    3.376 --    18 O    1.124    25 O    1.124    16 C    1.007
    18   8 O    2.230 --    17 B    1.124    19 C    0.954
    19   6 C    3.944 --    20 C    0.997    21 C    0.990    18 O    0.954
                            22 C    0.936
    20   6 C    3.994 --    19 C    0.997    47 H    0.985    46 H    0.983
                            48 H    0.982
    21   6 C    3.994 --    19 C    0.990    51 H    0.985    50 H    0.984
                            49 H    0.983
    22   6 C    3.943 --    24 C    0.996    23 C    0.990    25 O    0.955
                            19 C    0.936
    23   6 C    3.995 --    22 C    0.990    52 H    0.985    54 H    0.984
                            53 H    0.983
    24   6 C    3.994 --    22 C    0.996    55 H    0.985    57 H    0.983
                            56 H    0.982
    25   8 O    2.229 --    17 B    1.124    22 C    0.955
    26   6 C    3.989 --    16 C    1.804    27 C    1.080    58 H    0.964
    27   6 C    3.942 --    26 C    1.080    28 H    0.970    29 C    0.906
                            10 C    0.852
    28   1 H    0.998 --    27 C    0.970
    29   6 C    3.951 --    30 C    1.089    59 H    0.970    27 C    0.906
                            10 C    0.845
    30   6 C    3.987 --    31 C    1.814    29 C    1.089    60 H    0.967
    31   6 C    3.985 --    30 C    1.814    14 C    0.979    32 H    0.968
    32   1 H    0.999 --    31 C    0.968
    33   1 H    0.997 --     1 C    0.982
    34   1 H    0.998 --     1 C    0.984
    35   1 H    0.997 --     1 C    0.982
    36   1 H    0.997 --     4 C    0.983
    37   1 H    0.998 --     4 C    0.984
    38   1 H    0.998 --     4 C    0.984
    39   1 H    0.998 --     6 C    0.984
    40   1 H    0.997 --     6 C    0.982
    41   1 H    0.997 --     6 C    0.982
    42   1 H    0.998 --     7 C    0.984
    43   1 H    0.997 --     7 C    0.983
    44   1 H    0.998 --     7 C    0.984
    45   1 H    0.999 --    11 C    0.965
    46   1 H    0.997 --    20 C    0.983
    47   1 H    0.998 --    20 C    0.985
    48   1 H    0.997 --    20 C    0.982
    49   1 H    0.997 --    21 C    0.983
    50   1 H    0.998 --    21 C    0.984
    51   1 H    0.998 --    21 C    0.985
    52   1 H    0.998 --    23 C    0.985
    53   1 H    0.997 --    23 C    0.983
    54   1 H    0.998 --    23 C    0.984
    55   1 H    0.998 --    24 C    0.985
    56   1 H    0.997 --    24 C    0.982
    57   1 H    0.997 --    24 C    0.983
    58   1 H    0.998 --    26 C    0.964
    59   1 H    0.999 --    29 C    0.970
    60   1 H    0.999 --    30 C    0.967
 ---------------------------------------------------------------------------

molecular dipole:
                 x           y           z       tot (Debye)
 q only:       -0.207      -0.573      -0.231
   full:       -0.215      -0.657      -0.270       1.885

           -------------------------------------------------
          | TOTAL ENERGY              -82.314080428263 Eh   |
          | GRADIENT NORM               0.000868200717 Eh/α |
          | HOMO-LUMO GAP               3.239067565570 eV   |
           -------------------------------------------------

 * finished run on 2022/07/09 at 18:33:41.537
