   * xtb version 6.5.0 (homebrew) compiled by 'nhattrup@GPGGRP-SHANNON.CHEME.CMU.EDU' on
          program call               : /opt/homebrew/bin/xtb bvl_bpin2_scan_6-4_xtb.xyz --chrg 0 --uhf 0 --opt --input xcontrol_bvl_bpin2_scan_6-4_xtb

   ID    Z sym.   atoms
    1    6 C      1, 2, 4-7, 10-12, 14, 16, 19-24, 26, 27, 29-31
    2    8 O      3, 8, 18, 25
    3    5 B      9, 17
    4    1 H      13, 15, 28, 32-60
constraining bond 12 31 to    2.1667000 Å, actual value:    2.0533233 Å
constraining bond 10 29 to    2.0556000 Å, actual value:    2.1651237 Å

          :  Hamiltonian                  GFN2-xTB          :
 * total energy  :   -82.1155144 Eh     change       -0.2609255E-08 Eh
 * total energy  :   -82.2485960 Eh     change       -0.1330816E+00 Eh
 * total energy  :   -82.2911511 Eh     change       -0.4255511E-01 Eh
 * total energy  :   -82.2919085 Eh     change       -0.7573244E-03 Eh
 * total energy  :   -82.2923815 Eh     change       -0.4730744E-03 Eh
 * total energy  :   -82.2880663 Eh     change        0.4315232E-02 Eh
 * total energy  :   -82.2928639 Eh     change       -0.4797558E-02 Eh
 * total energy  :   -82.2930266 Eh     change       -0.1627512E-03 Eh
 * total energy  :   -82.2931698 Eh     change       -0.1431975E-03 Eh
 * total energy  :   -82.2933989 Eh     change       -0.2291007E-03 Eh
 * total energy  :   -82.2935626 Eh     change       -0.1144699E-04 Eh
 * total energy  :   -82.2935728 Eh     change       -0.1018133E-04 Eh
 * total energy  :   -82.2935826 Eh     change       -0.9848351E-05 Eh
 * total energy  :   -82.2935881 Eh     change       -0.5427666E-05 Eh
 * total energy  :   -82.2936048 Eh     change       -0.1668541E-04 Eh
 * total energy  :   -82.2936158 Eh     change       -0.1106890E-04 Eh
 * total energy  :   -82.2936205 Eh     change       -0.4705976E-05 Eh
 * total energy  :   -82.2936262 Eh     change       -0.5632960E-05 Eh
 * total energy  :   -82.2936300 Eh     change       -0.3834796E-05 Eh
   *** GEOMETRY OPTIMIZATION CONVERGED AFTER 26 ITERATIONS ***

 final structure:
================
60
 xtb: 6.5.0 (homebrew)
C            3.47846640962872      -37.73115969612456       15.91577610912972
C            3.73414370069104      -38.15715887388293       17.35954199537824
O            3.25897266395843      -37.14683591922930       18.24748216536704
C            2.92609268108476      -39.42622321388748       17.65994701653137
C            5.24962485246687      -38.29305633693154       17.75330951644646
C            5.78116459828700      -39.72419292750653       17.78441661082700
C            6.17180696143431      -37.43383208088554       16.87882928790573
O            5.29239775832386      -37.74243560736367       19.06911814638554
B            4.15181886401092      -37.01555060286605       19.28008528826602
C            3.88381650250097      -36.17503154832499       20.55322262125430
C            4.91376529318612      -35.99202261680962       21.48932604660755
C            4.93648498189221      -35.19054990168522       22.59205481941734
H            5.86897452007699      -35.10315062570795       23.13248467077320
C            3.82882214413630      -34.29324695623718       23.06599108848291
H            4.05946960628179      -33.89782498421085       24.05577383616744
C            2.45190809156118      -34.89441782901068       23.11186374841253
B            1.70333574743836      -34.89289916316744       24.48068761129364
O            2.22920268877080      -34.38486393984391       25.63685253637732
C            1.36309857203284      -34.71822123868800       26.72063269253224
C            1.25318632844469      -33.52843078923868       27.67134130536497
C            2.01123288570611      -35.89512726512167       27.46107713714253
C            0.02544542725212      -35.11519912299800       25.99666226755841
C           -0.96604824720014      -33.94916469077808       25.89386769133012
C           -0.69042280108898      -36.32883920849404       26.58534584736790
O            0.45370409738350      -35.41389693999022       24.66834007287086
C            1.89506428539292      -35.45419405034855       22.03818213669910
C            2.50274289639491      -35.55883754305161       20.68895056231221
H            1.81580782479192      -36.04974931626584       20.00076054096618
C            3.09993328144579      -34.34587484705150       20.04893336776562
C            3.79973562911330      -33.33104062103761       20.69105629186183
C            4.12886397430147      -33.26534466371287       22.01674956643533
H            4.76508535042467      -32.45132100098484       22.33603617221944
H            2.40537011493914      -37.68555612569526       15.74686211525877
H            3.91209703003503      -38.45322598726298       15.22923647252809
H            3.89224336596590      -36.74792224754067       15.71637077991781
H            1.87014782112836      -39.20318362591097       17.52450240856756
H            3.07530213329385      -39.72888103245788       18.69348756461649
H            3.20443767147024      -40.23740765713062       16.99403066295881
H            5.67244128693119      -40.18753865822182       16.80748915191186
H            5.26165159288582      -40.31886874630937       18.52867390752962
H            6.83559547270303      -39.70184274848901       18.04826748068061
H            6.22534098909409      -37.82121913473450       15.86582675413283
H            7.16797111398119      -37.44351719057229       17.31525530097557
H            5.82335418246220      -36.40413289768768       16.86217918374718
H            5.83189805315188      -36.51172051514831       21.24034429369551
H            2.22368929053252      -33.35190277016948       28.12854245499364
H            0.52918087814723      -33.73895162750516       28.45386550443381
H            0.96250153194731      -32.62747251786111       27.14093626604242
H            3.00284801004608      -35.59265709536152       27.78997753083497
H            2.12468277094280      -36.74313748006011       26.79033291661366
H            1.42468059927990      -36.18566320112626       28.32746110786745
H           -1.37067674427204      -33.68997587787081       26.86766423880112
H           -1.78143235374229      -34.24747769109117       25.23896003021810
H           -0.48197409465898      -33.08189268094427       25.45205046668484
H           -0.94570771795255      -36.14708818825217       27.62587489476158
H           -0.07599612770640      -37.22020044042323       26.51222594723548
H           -1.60481287695317      -36.50373582978594       26.02395361400543
H            0.90914816110450      -35.88644075009880       22.14367918768656
H            3.00830196121204      -34.30276714234388       18.97443993398318
H            4.18371831390448      -32.54290601850803       20.05261106186676

          :  Hamiltonian                  GFN2-xTB          :
         :: total energy             -82.293630003458 Eh    ::
         :: gradient norm              0.000514190092 Eh/a0 ::
         :: HOMO-LUMO gap              2.529497504956 eV    ::
         :: SCC energy               -83.372180094987 Eh    ::
         :: -> dispersion             -0.062727933474 Eh    ::
         :: repulsion energy           1.077795319468 Eh    ::

    * Orbital Energies and Occupations

         #    Occupation            Energy/Eh            Energy/eV
      -------------------------------------------------------------
         1        2.0000           -0.6881808             -18.7264
       ...           ...                  ...                  ...
        63        2.0000           -0.4337798             -11.8037
        64        2.0000           -0.4324620             -11.7679
        65        2.0000           -0.4241475             -11.5416
        66        2.0000           -0.4216867             -11.4747
        67        2.0000           -0.4188491             -11.3975
        68        2.0000           -0.4158186             -11.3150
        69        2.0000           -0.4030706             -10.9681
        70        2.0000           -0.3973424             -10.8122
        71        2.0000           -0.3966900             -10.7945
        72        2.0000           -0.3930042             -10.6942
        73        2.0000           -0.3896115             -10.6019
        74        2.0000           -0.3576131              -9.7311
        75        2.0000           -0.3389644              -9.2237 (HOMO)
        76                         -0.2460071              -6.6942 (LUMO)
        77                         -0.2183627              -5.9420
        78                         -0.1867902              -5.0828
        79                         -0.1364752              -3.7137
        80                         -0.0966443              -2.6298
        81                         -0.0758545              -2.0641
        82                          0.0095948               0.2611
        83                          0.0108272               0.2946
        84                          0.0285970               0.7782
        85                          0.0295254               0.8034
        86                          0.0572469               1.5578
       ...                                ...                  ...
       144                          0.6849472              18.6384
      -------------------------------------------------------------
                  HL-Gap            0.0929573 Eh            2.5295 eV

     #   Z          covCN         q      C6AA      α(0)
     1   6 C        3.755    -0.117    22.788     6.807
     2   6 C        3.859     0.130    18.440     6.107
     3   8 O        1.638    -0.379    20.447     6.104
     4   6 C        3.755    -0.116    22.775     6.805
     5   6 C        3.859     0.130    18.443     6.108
     6   6 C        3.755    -0.117    22.802     6.809
     7   6 C        3.755    -0.115    22.762     6.803
     8   8 O        1.638    -0.374    20.369     6.092
     9   5 B        2.659     0.433    15.554     6.640
    10   6 C        3.245    -0.075    28.811     8.696
    11   6 C        2.891    -0.043    29.069     8.840
    12   6 C        3.075    -0.029    28.654     8.777
    13   1 H        0.925     0.027     2.631     2.537
    14   6 C        3.864    -0.013    20.764     6.480
    15   1 H        0.924     0.046     2.368     2.407
    16   6 C        2.864    -0.082    30.048     8.985
    17   5 B        2.662     0.431    15.561     6.640
    18   8 O        1.638    -0.371    20.302     6.082
    19   6 C        3.860     0.129    18.456     6.110
    20   6 C        3.755    -0.117    22.798     6.808
    21   6 C        3.755    -0.116    22.778     6.805
    22   6 C        3.860     0.129    18.456     6.110
    23   6 C        3.755    -0.116    22.784     6.806
    24   6 C        3.755    -0.118    22.806     6.809
    25   8 O        1.638    -0.371    20.295     6.081
    26   6 C        2.896    -0.027    28.671     8.779
    27   6 C        3.862    -0.008    20.684     6.468
    28   1 H        0.925     0.047     2.362     2.403
    29   6 C        3.272    -0.019    27.119     8.393
    30   6 C        2.888    -0.043    29.078     8.841
    31   6 C        3.077    -0.025    28.543     8.759
    32   1 H        0.925     0.028     2.615     2.529
    33   1 H        0.925     0.054     2.271     2.357
    34   1 H        0.925     0.039     2.458     2.452
    35   1 H        0.925     0.051     2.308     2.376
    36   1 H        0.925     0.052     2.299     2.371
    37   1 H        0.925     0.043     2.403     2.424
    38   1 H        0.925     0.042     2.422     2.433
    39   1 H        0.925     0.040     2.455     2.450
    40   1 H        0.925     0.052     2.293     2.368
    41   1 H        0.925     0.054     2.268     2.355
    42   1 H        0.925     0.042     2.419     2.432
    43   1 H        0.925     0.052     2.298     2.370
    44   1 H        0.925     0.043     2.416     2.431
    45   1 H        0.925     0.034     2.536     2.490
    46   1 H        0.925     0.054     2.269     2.356
    47   1 H        0.925     0.040     2.454     2.450
    48   1 H        0.925     0.052     2.296     2.369
    49   1 H        0.925     0.052     2.295     2.369
    50   1 H        0.925     0.044     2.399     2.422
    51   1 H        0.925     0.042     2.418     2.432
    52   1 H        0.925     0.043     2.414     2.430
    53   1 H        0.925     0.052     2.290     2.366
    54   1 H        0.925     0.044     2.399     2.422
    55   1 H        0.925     0.040     2.451     2.448
    56   1 H        0.925     0.052     2.293     2.368
    57   1 H        0.925     0.054     2.265     2.353
    58   1 H        0.925     0.038     2.478     2.462
    59   1 H        0.926     0.034     2.524     2.484
    60   1 H        0.925     0.024     2.679     2.560

Wiberg/Mayer (AO) data.
largest (>0.10) Wiberg bond orders for each atom

     #   Z sym  total        # sym  WBO       # sym  WBO       # sym  WBO
 ---------------------------------------------------------------------------
     1   6 C    3.994 --     2 C    0.997    34 H    0.985    33 H    0.983
                            35 H    0.982
     2   6 C    3.943 --     1 C    0.997     4 C    0.990     3 O    0.954
                             5 C    0.937
     3   8 O    2.218 --     9 B    1.114     2 C    0.954
     4   6 C    3.994 --     2 C    0.990    38 H    0.984    37 H    0.984
                            36 H    0.983
     5   6 C    3.943 --     6 C    0.997     7 C    0.990     8 O    0.953
                             2 C    0.937
     6   6 C    3.994 --     5 C    0.997    39 H    0.985    41 H    0.983
                            40 H    0.982
     7   6 C    3.994 --     5 C    0.990    42 H    0.984    44 H    0.984
                            43 H    0.983
     8   8 O    2.224 --     9 B    1.121     5 C    0.953
     9   5 B    3.386 --     8 O    1.121     3 O    1.114    10 C    1.022
    10   6 C    3.931 --    11 C    1.339     9 B    1.022    27 C    0.928
                            29 C    0.387    31 C    0.134
    11   6 C    3.991 --    12 C    1.576    10 C    1.339    45 H    0.961
    12   6 C    3.967 --    11 C    1.576    13 H    0.971    14 C    0.965
                            31 C    0.243    29 C    0.126
    13   1 H    0.999 --    12 C    0.971
    14   6 C    3.991 --    16 C    0.994    31 C    0.974    15 H    0.969
                            12 C    0.965
    15   1 H    0.998 --    14 C    0.969
    16   6 C    3.977 --    26 C    1.848    17 B    0.999    14 C    0.994
    17   5 B    3.376 --    25 O    1.131    18 O    1.129    16 C    0.999
    18   8 O    2.234 --    17 B    1.129    19 C    0.953
    19   6 C    3.943 --    20 C    0.997    21 C    0.991    18 O    0.953
                            22 C    0.936
    20   6 C    3.994 --    19 C    0.997    47 H    0.985    46 H    0.983
                            48 H    0.982
    21   6 C    3.994 --    19 C    0.991    51 H    0.984    50 H    0.984
                            49 H    0.983
    22   6 C    3.942 --    24 C    0.996    23 C    0.991    25 O    0.953
                            19 C    0.936
    23   6 C    3.995 --    22 C    0.991    52 H    0.984    54 H    0.984
                            53 H    0.983
    24   6 C    3.994 --    22 C    0.996    55 H    0.985    57 H    0.983
                            56 H    0.982
    25   8 O    2.235 --    17 B    1.131    22 C    0.953
    26   6 C    3.988 --    16 C    1.848    27 C    1.024    58 H    0.966
    27   6 C    3.987 --    26 C    1.024    29 C    0.969    28 H    0.968
                            10 C    0.928
    28   1 H    0.998 --    27 C    0.968
    29   6 C    3.948 --    30 C    1.386    59 H    0.973    27 C    0.969
                            10 C    0.387    12 C    0.126
    30   6 C    3.990 --    31 C    1.544    29 C    1.386    60 H    0.964
    31   6 C    3.955 --    30 C    1.544    14 C    0.974    32 H    0.973
                            12 C    0.243    10 C    0.134
    32   1 H    0.999 --    31 C    0.973
    33   1 H    0.997 --     1 C    0.983
    34   1 H    0.998 --     1 C    0.985
    35   1 H    0.997 --     1 C    0.982
    36   1 H    0.997 --     4 C    0.983
    37   1 H    0.998 --     4 C    0.984
    38   1 H    0.998 --     4 C    0.984
    39   1 H    0.998 --     6 C    0.985
    40   1 H    0.997 --     6 C    0.982
    41   1 H    0.997 --     6 C    0.983
    42   1 H    0.998 --     7 C    0.984
    43   1 H    0.997 --     7 C    0.983
    44   1 H    0.998 --     7 C    0.984
    45   1 H    0.999 --    11 C    0.961
    46   1 H    0.997 --    20 C    0.983
    47   1 H    0.998 --    20 C    0.985
    48   1 H    0.997 --    20 C    0.982
    49   1 H    0.997 --    21 C    0.983
    50   1 H    0.998 --    21 C    0.984
    51   1 H    0.998 --    21 C    0.984
    52   1 H    0.998 --    23 C    0.984
    53   1 H    0.997 --    23 C    0.983
    54   1 H    0.998 --    23 C    0.984
    55   1 H    0.998 --    24 C    0.985
    56   1 H    0.997 --    24 C    0.982
    57   1 H    0.997 --    24 C    0.983
    58   1 H    0.998 --    26 C    0.966
    59   1 H    0.998 --    29 C    0.973
    60   1 H    0.999 --    30 C    0.964
 ---------------------------------------------------------------------------

molecular dipole:
                 x           y           z       tot (Debye)
 q only:       -0.300      -0.350       0.079
   full:       -0.147      -0.408      -0.052       1.111

           -------------------------------------------------
          | TOTAL ENERGY              -82.293630003458 Eh   |
          | GRADIENT NORM               0.000514190092 Eh/α |
          | HOMO-LUMO GAP               2.529497504956 eV   |
           -------------------------------------------------

 * finished run on 2022/07/09 at 18:33:25.868
