   * xtb version 6.5.0 (homebrew) compiled by 'nhattrup@GPGGRP-SHANNON.CHEME.CMU.EDU' on
          program call               : /opt/homebrew/bin/xtb bvl_bpin2_scan_7-9_xtb.xyz --chrg 0 --uhf 0 --opt --input xcontrol_bvl_bpin2_scan_7-9_xtb

   ID    Z sym.   atoms
    1    6 C      1, 2, 4-7, 10-12, 14, 16, 19-24, 26, 27, 29-31
    2    8 O      3, 8, 18, 25
    3    5 B      9, 17
    4    1 H      13, 15, 28, 32-60
constraining bond 12 31 to    2.2778000 Å, actual value:    2.1694688 Å
constraining bond 10 29 to    1.5000000 Å, actual value:    1.6094453 Å

          :  Hamiltonian                  GFN2-xTB          :
 * total energy  :   -82.1455103 Eh     change       -0.1217913E-08 Eh
 * total energy  :   -82.2670873 Eh     change       -0.1215771E+00 Eh
 * total energy  :   -82.3162074 Eh     change       -0.4912006E-01 Eh
 * total energy  :   -82.3168114 Eh     change       -0.6039822E-03 Eh
 * total energy  :   -82.3172620 Eh     change       -0.4505860E-03 Eh
 * total energy  :   -82.3136898 Eh     change        0.3572161E-02 Eh
 * total energy  :   -82.3177491 Eh     change       -0.4059283E-02 Eh
 * total energy  :   -82.3179470 Eh     change       -0.1979012E-03 Eh
 * total energy  :   -82.3183037 Eh     change       -0.3567130E-03 Eh
 * total energy  :   -82.3184997 Eh     change       -0.1959741E-03 Eh
 * total energy  :   -82.3189541 Eh     change       -0.5332572E-05 Eh
 * total energy  :   -82.3189611 Eh     change       -0.7002913E-05 Eh
 * total energy  :   -82.3189684 Eh     change       -0.7229963E-05 Eh
 * total energy  :   -82.3189773 Eh     change       -0.8974474E-05 Eh
 * total energy  :   -82.3189868 Eh     change       -0.9473602E-05 Eh
 * total energy  :   -82.3189985 Eh     change       -0.1164894E-04 Eh
 * total energy  :   -82.3190088 Eh     change       -0.1032763E-04 Eh
 * total energy  :   -82.3190237 Eh     change       -0.1491718E-04 Eh
 * total energy  :   -82.3190277 Eh     change       -0.4049572E-05 Eh
   *** GEOMETRY OPTIMIZATION CONVERGED AFTER 37 ITERATIONS ***

 final structure:
================
60
 xtb: 6.5.0 (homebrew)
C            3.61984839622325      -37.69818245797600       15.80940505277876
C            3.76998881554270      -38.07008532615460       17.28237195665181
O            3.31893918279131      -36.98651733259631       18.09735336567043
C            2.86328853444533      -39.26685555014416       17.59514508679719
C            5.25035372792357      -38.28323059970626       17.76574258276445
C            5.68221974530012      -39.74095392783830       17.90190470350680
C            6.27294862940474      -37.53285067053823       16.90365838817443
O            5.26010372092607      -37.66391283013587       19.05366417071525
B            4.16581821453278      -36.85853548613897       19.16325021529757
C            3.89700974703254      -35.88942640642703       20.36904767819956
C            4.91217978718014      -35.91766018479273       21.43400919930506
C            4.91001285921791      -35.22916287781583       22.57310508771710
H            5.76728164105608      -35.33559024844054       23.22755442953095
C            3.83257544176315      -34.31726783701326       23.04532606856942
H            4.07275254734744      -33.92826059257833       24.03551479562802
C            2.47444328837936      -34.97613689242303       23.12190102145838
B            1.74406128643815      -34.96719243889009       24.49664180207222
O            2.26112273806791      -34.40366583010967       25.63180757827021
C            1.40118214853356      -34.70567283990980       26.72861772157509
C            1.26887024842464      -33.47711387440987       27.62590085253413
C            2.06822321018266      -35.83707702955953       27.52142371927421
C            0.07163489037061      -35.15762414102049       26.02264199424297
C           -0.93665852030049      -34.01220553556532       25.86343773150642
C           -0.62757454153204      -36.35164301319790       26.66849968203663
O            0.50632175218852      -35.51099672798774       24.71045538609379
C            1.90315112395334      -35.56055102502695       22.06115427839955
C            2.41686746832352      -35.65253738785024       20.69908057905070
H            1.74761634840561      -36.16174377251345       20.01628630500565
C            3.24159650649399      -34.57647590273698       20.04596137844678
C            3.66325279144757      -33.35505337809141       20.73260157572900
C            3.94315723405033      -33.23692952213771       22.02898531980106
H            4.29158858038454      -32.27500289142202       22.38648311246024
H            2.56242597331466      -37.59878047908738       15.57679387992268
H            4.04624681187229      -38.47561506057625       15.18143441145250
H            4.10262519939122      -36.75090694588583       15.59170652121298
H            1.83349763054795      -38.98337298208257       17.38939276943005
H            2.93589014768256      -39.52803263005948       18.64807958046348
H            3.12215571813537      -40.12575649877087       16.98358731960429
H            5.59793723154428      -40.24918660273642       16.94523736527853
H            5.08369557407621      -40.25999417073245       18.64342509634601
H            6.71939443803198      -39.77063198198289       18.22648540483162
H            6.35458079857673      -37.97694067482623       15.91623522695690
H            7.24151259639001      -37.58225664679203       17.39587098291544
H            5.99518772605678      -36.48549650418814       16.81528147920226
H            5.76736509562648      -36.53795877113544       21.19982134452665
H            2.23441162032469      -33.26586875857186       28.07895465837495
H            0.54413243901669      -33.66350174574775       28.41385190506243
H            0.96770137604054      -32.60493772753600       27.05475930927737
H            3.05336687394055      -35.50284435663107       27.83904347778786
H            2.19822688615055      -36.71195956997015       26.88922040811885
H            1.48418712510917      -36.09931354501425       28.39857056653174
H           -1.34975659341776      -33.71500876527959       26.82273873487177
H           -1.74435811165826      -34.35191638842446       25.21915214722532
H           -0.46303442497396      -33.15886786893763       25.38455289813730
H           -0.88665703737341      -36.12311406096563       27.69885581461799
H           -0.00043256600177      -37.23667368083754       26.63928690976554
H           -1.53882280519264      -36.56647954232333       26.11584569177739
H            0.93460182159460      -36.02126786083775       22.21129317206733
H            3.02042770189762      -34.42562156431836       18.99479271293994
H            3.81305320880041      -32.49858008459929       20.08670739203604

          :  Hamiltonian                  GFN2-xTB          :
         :: total energy             -82.319027749421 Eh    ::
         :: gradient norm              0.000678804348 Eh/a0 ::
         :: HOMO-LUMO gap              3.366530618788 eV    ::
         :: SCC energy               -83.408231863768 Eh    ::
         :: -> dispersion             -0.062066757112 Eh    ::
         :: repulsion energy           1.088449560752 Eh    ::

    * Orbital Energies and Occupations

         #    Occupation            Energy/Eh            Energy/eV
      -------------------------------------------------------------
         1        2.0000           -0.6940646             -18.8865
       ...           ...                  ...                  ...
        63        2.0000           -0.4374143             -11.9026
        64        2.0000           -0.4352539             -11.8439
        65        2.0000           -0.4301017             -11.7037
        66        2.0000           -0.4241306             -11.5412
        67        2.0000           -0.4181269             -11.3778
        68        2.0000           -0.4106528             -11.1744
        69        2.0000           -0.4033467             -10.9756
        70        2.0000           -0.4010485             -10.9131
        71        2.0000           -0.3982062             -10.8357
        72        2.0000           -0.3945772             -10.7370
        73        2.0000           -0.3846744             -10.4675
        74        2.0000           -0.3565198              -9.7014
        75        2.0000           -0.3460829              -9.4174 (HOMO)
        76                         -0.2223651              -6.0509 (LUMO)
        77                         -0.1913909              -5.2080
        78                         -0.1807825              -4.9193
        79                         -0.1468359              -3.9956
        80                         -0.0937091              -2.5500
        81                          0.0009044               0.0246
        82                          0.0124198               0.3380
        83                          0.0207579               0.5649
        84                          0.0274050               0.7457
        85                          0.0314040               0.8545
        86                          0.0527899               1.4365
       ...                                ...                  ...
       144                          0.6799123              18.5014
      -------------------------------------------------------------
                  HL-Gap            0.1237177 Eh            3.3665 eV

     #   Z          covCN         q      C6AA      α(0)
     1   6 C        3.755    -0.118    22.807     6.810
     2   6 C        3.860     0.130    18.442     6.107
     3   8 O        1.638    -0.377    20.425     6.101
     4   6 C        3.755    -0.117    22.787     6.807
     5   6 C        3.861     0.129    18.451     6.109
     6   6 C        3.755    -0.118    22.817     6.811
     7   6 C        3.755    -0.117    22.789     6.807
     8   8 O        1.638    -0.370    20.284     6.079
     9   5 B        2.660     0.441    15.455     6.619
    10   6 C        3.834    -0.058    21.588     6.610
    11   6 C        2.892    -0.047    29.163     8.854
    12   6 C        2.957    -0.032    28.784     8.800
    13   1 H        0.925     0.023     2.686     2.563
    14   6 C        3.867    -0.015    20.803     6.486
    15   1 H        0.924     0.043     2.404     2.425
    16   6 C        2.867    -0.086    30.161     9.002
    17   5 B        2.661     0.431    15.561     6.640
    18   8 O        1.638    -0.372    20.320     6.085
    19   6 C        3.859     0.129    18.453     6.109
    20   6 C        3.755    -0.117    22.791     6.807
    21   6 C        3.755    -0.116    22.768     6.804
    22   6 C        3.860     0.129    18.449     6.108
    23   6 C        3.755    -0.116    22.776     6.805
    24   6 C        3.755    -0.117    22.797     6.808
    25   8 O        1.638    -0.374    20.365     6.092
    26   6 C        2.895    -0.028    28.696     8.783
    27   6 C        3.860    -0.016    20.821     6.489
    28   1 H        0.925     0.038     2.476     2.461
    29   6 C        3.865    -0.006    20.643     6.461
    30   6 C        2.890    -0.043    29.060     8.838
    31   6 C        2.958    -0.029    28.723     8.791
    32   1 H        0.925     0.024     2.675     2.558
    33   1 H        0.925     0.055     2.256     2.349
    34   1 H        0.925     0.041     2.437     2.441
    35   1 H        0.925     0.052     2.290     2.366
    36   1 H        0.925     0.053     2.286     2.365
    37   1 H        0.925     0.044     2.394     2.419
    38   1 H        0.925     0.044     2.401     2.423
    39   1 H        0.925     0.041     2.435     2.440
    40   1 H        0.925     0.053     2.281     2.362
    41   1 H        0.925     0.056     2.248     2.345
    42   1 H        0.925     0.044     2.398     2.422
    43   1 H        0.925     0.054     2.275     2.359
    44   1 H        0.925     0.044     2.397     2.421
    45   1 H        0.925     0.033     2.545     2.495
    46   1 H        0.925     0.054     2.274     2.358
    47   1 H        0.925     0.039     2.463     2.454
    48   1 H        0.925     0.052     2.300     2.371
    49   1 H        0.925     0.052     2.300     2.372
    50   1 H        0.925     0.043     2.405     2.425
    51   1 H        0.925     0.042     2.427     2.436
    52   1 H        0.925     0.042     2.423     2.434
    53   1 H        0.925     0.052     2.299     2.371
    54   1 H        0.925     0.043     2.404     2.424
    55   1 H        0.925     0.039     2.459     2.452
    56   1 H        0.925     0.052     2.299     2.371
    57   1 H        0.925     0.054     2.273     2.358
    58   1 H        0.925     0.036     2.506     2.475
    59   1 H        0.925     0.034     2.528     2.486
    60   1 H        0.925     0.023     2.688     2.564

Wiberg/Mayer (AO) data.
largest (>0.10) Wiberg bond orders for each atom

     #   Z sym  total        # sym  WBO       # sym  WBO       # sym  WBO
 ---------------------------------------------------------------------------
     1   6 C    3.994 --     2 C    0.997    34 H    0.984    33 H    0.982
                            35 H    0.982
     2   6 C    3.941 --     1 C    0.997     4 C    0.991     3 O    0.949
                             5 C    0.937
     3   8 O    2.227 --     9 B    1.130     2 C    0.949
     4   6 C    3.995 --     2 C    0.991    38 H    0.984    37 H    0.984
                            36 H    0.983
     5   6 C    3.940 --     6 C    0.997     7 C    0.991     8 O    0.948
                             2 C    0.937
     6   6 C    3.994 --     5 C    0.997    39 H    0.984    41 H    0.982
                            40 H    0.982
     7   6 C    3.995 --     5 C    0.991    42 H    0.984    44 H    0.984
                            43 H    0.983
     8   8 O    2.238 --     9 B    1.142     5 C    0.948
     9   5 B    3.375 --     8 O    1.142     3 O    1.130    10 C    0.988
    10   6 C    3.932 --    11 C    1.069     9 B    0.988    29 C    0.860
                            27 C    0.847
    11   6 C    3.989 --    12 C    1.853    10 C    1.069    45 H    0.965
    12   6 C    3.989 --    11 C    1.853    14 C    0.981    13 H    0.968
    13   1 H    0.999 --    12 C    0.968
    14   6 C    3.995 --    31 C    0.984    12 C    0.981    16 C    0.975
                            15 H    0.971
    15   1 H    0.998 --    14 C    0.971
    16   6 C    3.975 --    26 C    1.798    17 B    1.007    14 C    0.975
    17   5 B    3.375 --    18 O    1.125    25 O    1.124    16 C    1.007
    18   8 O    2.231 --    17 B    1.125    19 C    0.954
    19   6 C    3.944 --    20 C    0.996    21 C    0.990    18 O    0.954
                            22 C    0.937
    20   6 C    3.994 --    19 C    0.996    47 H    0.985    46 H    0.983
                            48 H    0.982
    21   6 C    3.994 --    19 C    0.990    51 H    0.985    50 H    0.984
                            49 H    0.983
    22   6 C    3.943 --    24 C    0.996    23 C    0.990    25 O    0.954
                            19 C    0.937
    23   6 C    3.995 --    22 C    0.990    52 H    0.985    54 H    0.984
                            53 H    0.983
    24   6 C    3.994 --    22 C    0.996    55 H    0.985    57 H    0.983
                            56 H    0.982
    25   8 O    2.228 --    17 B    1.124    22 C    0.954
    26   6 C    3.989 --    16 C    1.798    27 C    1.085    58 H    0.964
    27   6 C    3.943 --    26 C    1.085    28 H    0.970    29 C    0.904
                            10 C    0.847
    28   1 H    0.998 --    27 C    0.970
    29   6 C    3.951 --    30 C    1.079    59 H    0.970    27 C    0.904
                            10 C    0.860
    30   6 C    3.989 --    31 C    1.846    29 C    1.079    60 H    0.967
    31   6 C    3.987 --    30 C    1.846    14 C    0.984    32 H    0.968
    32   1 H    0.999 --    31 C    0.968
    33   1 H    0.997 --     1 C    0.982
    34   1 H    0.998 --     1 C    0.984
    35   1 H    0.997 --     1 C    0.982
    36   1 H    0.997 --     4 C    0.983
    37   1 H    0.998 --     4 C    0.984
    38   1 H    0.998 --     4 C    0.984
    39   1 H    0.998 --     6 C    0.984
    40   1 H    0.997 --     6 C    0.982
    41   1 H    0.997 --     6 C    0.982
    42   1 H    0.998 --     7 C    0.984
    43   1 H    0.997 --     7 C    0.983
    44   1 H    0.998 --     7 C    0.984
    45   1 H    0.999 --    11 C    0.965
    46   1 H    0.997 --    20 C    0.983
    47   1 H    0.998 --    20 C    0.985
    48   1 H    0.997 --    20 C    0.982
    49   1 H    0.997 --    21 C    0.983
    50   1 H    0.998 --    21 C    0.984
    51   1 H    0.998 --    21 C    0.985
    52   1 H    0.998 --    23 C    0.985
    53   1 H    0.997 --    23 C    0.983
    54   1 H    0.998 --    23 C    0.984
    55   1 H    0.998 --    24 C    0.985
    56   1 H    0.997 --    24 C    0.982
    57   1 H    0.997 --    24 C    0.983
    58   1 H    0.999 --    26 C    0.964
    59   1 H    0.998 --    29 C    0.970
    60   1 H    0.999 --    30 C    0.967
 ---------------------------------------------------------------------------

molecular dipole:
                 x           y           z       tot (Debye)
 q only:       -0.205      -0.553      -0.220
   full:       -0.244      -0.641      -0.251       1.856

           -------------------------------------------------
          | TOTAL ENERGY              -82.319027749421 Eh   |
          | GRADIENT NORM               0.000678804348 Eh/α |
          | HOMO-LUMO GAP               3.366530618788 eV   |
           -------------------------------------------------

 * finished run on 2022/07/09 at 18:33:44.607
