   * xtb version 6.5.0 (homebrew) compiled by 'nhattrup@GPGGRP-SHANNON.CHEME.CMU.EDU' on
          program call               : /opt/homebrew/bin/xtb bvl_bpin2_scan_3-8_xtb.xyz --chrg 0 --uhf 0 --opt --input xcontrol_bvl_bpin2_scan_3-8_xtb

   ID    Z sym.   atoms
    1    6 C      1, 2, 4-7, 10-12, 14, 16, 19-24, 26, 27, 29-31
    2    8 O      3, 8, 18, 25
    3    5 B      9, 17
    4    1 H      13, 15, 28, 32-60
constraining bond 12 31 to    1.8333000 Å, actual value:    1.7229983 Å
constraining bond 10 29 to    1.6111000 Å, actual value:    1.7232165 Å

          :  Hamiltonian                  GFN2-xTB          :
 * total energy  :   -82.1215992 Eh     change       -0.1305409E-08 Eh
 * total energy  :   -82.2553736 Eh     change       -0.1337744E+00 Eh
 * total energy  :   -82.2978118 Eh     change       -0.4243823E-01 Eh
 * total energy  :   -82.2985729 Eh     change       -0.7610423E-03 Eh
 * total energy  :   -82.2982850 Eh     change        0.2879080E-03 Eh
 * total energy  :   -82.2965804 Eh     change        0.1704504E-02 Eh
 * total energy  :   -82.2991063 Eh     change       -0.2525810E-02 Eh
 * total energy  :   -82.2992294 Eh     change       -0.1230992E-03 Eh
 * total energy  :   -82.2992654 Eh     change       -0.3606451E-04 Eh
 * total energy  :   -82.2993452 Eh     change       -0.7980476E-04 Eh
 * total energy  :   -82.2993606 Eh     change       -0.6522438E-05 Eh
 * total energy  :   -82.2993664 Eh     change       -0.5733688E-05 Eh
 * total energy  :   -82.2993739 Eh     change       -0.7505964E-05 Eh
 * total energy  :   -82.2993797 Eh     change       -0.5826246E-05 Eh
 * total energy  :   -82.2993857 Eh     change       -0.6008698E-05 Eh
 * total energy  :   -82.2993914 Eh     change       -0.5725207E-05 Eh
 * total energy  :   -82.2993950 Eh     change       -0.3551624E-05 Eh
 * total energy  :   -82.2993990 Eh     change       -0.4065572E-05 Eh
 * total energy  :   -82.2994013 Eh     change       -0.2241504E-05 Eh
   *** GEOMETRY OPTIMIZATION CONVERGED AFTER 20 ITERATIONS ***

 final structure:
================
60
 xtb: 6.5.0 (homebrew)
C            3.47701116819694      -37.74894166268081       15.90507237483277
C            3.71967161063870      -38.13476674788242       17.36236981717972
O            3.24882622605369      -37.08896846218566       18.21366901238675
C            2.89627346591971      -39.38533916288137       17.69418426079864
C            5.23217724134817      -38.27022229680858       17.77069712803084
C            5.74488752079970      -39.70391552245569       17.88198960555377
C            6.17113933108508      -37.46870519524461       16.86079695648380
O            5.27701123152065      -37.64936170135632       19.05711994768504
B            4.14649817530293      -36.90714946557113       19.22823411112548
C            3.89588120955841      -35.94114915710539       20.43931961181696
C            4.93125150876670      -35.87283079522411       21.43078860542095
C            4.96588724300736      -34.99273713428583       22.47876328079802
H            5.90120600667444      -34.92014919564679       23.02283798287136
C            3.81510723025498      -34.27191173928342       23.09210353975222
H            4.05254518604671      -33.87300148370031       24.07507939173947
C            2.45495470769952      -34.89302596011352       23.12322076095591
B            1.70806374137369      -34.89997481176125       24.49018986972555
O            2.21588608361986      -34.37922892900083       25.65005138410115
C            1.34870564218742      -34.72965346638237       26.72770594877523
C            1.20579369281349      -33.54304907012366       27.67811165667198
C            2.01455458800237      -35.89288322606099       27.47423832002054
C            0.02456411854119      -35.15414882050116       25.99477602820380
C           -0.98958406318986      -34.00853164929120       25.88305878624733
C           -0.67053645515842      -36.38229383128422       26.57817099241841
O            0.46757094135218      -35.44642973469226       24.67080536208440
C            1.88883802128530      -35.46080646530118       22.05584832980910
C            2.44361826339195      -35.57709275530784       20.70304406737854
H            1.76798967925604      -36.07256205128802       20.01472194069504
C            3.26177978292499      -34.51102143655987       20.04896175864241
C            3.84348678687194      -33.37750729102559       20.68871634319804
C            4.25674352181396      -33.36979454083976       21.99571245149460
H            4.86027586120779      -32.52518783871404       22.30970411566964
H            2.40544214265981      -37.69723376283068       15.72865195363995
H            3.90684095403494      -38.49525300714659       15.24272366879432
H            3.90171826357781      -36.77610294951187       15.67958096646565
H            1.84411060064499      -39.15778145768597       17.53883774796062
H            3.03032873492972      -39.65868402267819       18.73773228075835
H            3.17504635919035      -40.21867706116178       17.05635411203435
H            5.64284540891368      -40.21567173621343       16.92887607913708
H            5.20918220706848      -40.25366780955719       18.64886746682414
H            6.79606796024433      -39.68010582226140       18.15803828368963
H            6.21961344564613      -37.90177269828786       15.86636645457358
H            7.16593227736036      -37.47672686253299       17.30010594164169
H            5.84182890735806      -36.43458417798930       16.79732075362941
H            5.85859193273568      -36.35046308295656       21.14446033959636
H            2.16821637946502      -33.34554505972631       28.14372475977328
H            0.48019449354464      -33.77060630976570       28.45446770564471
H            0.89930142399949      -32.64815080329380       27.14640437168399
H            2.99745111575613      -35.57064393368663       27.81051084911217
H            2.14967642050168      -36.73936601752401       26.80560817756807
H            1.42716457666512      -36.19391320045879       28.33648888542901
H           -1.40736690456403      -33.75644662468554       26.85314064776881
H           -1.79333006917982      -34.32428013059602       25.22192760336790
H           -0.51975816069670      -33.13209147942573       25.44389309704074
H           -0.93649514254940      -36.20775027875308       27.61716529258899
H           -0.03725123961851      -37.26060918497777       26.50740115109812
H           -1.57716624289525      -36.57485713400570       26.00997234325288
H            0.90636484674698      -35.89563448021706       22.18376410373510
H            3.08213109926362      -34.39884662957752       18.98615799131143
H            4.24891894002912      -32.61926268193237       20.03114322931220

          :  Hamiltonian                  GFN2-xTB          :
         :: total energy             -82.299401286163 Eh    ::
         :: gradient norm              0.000836690460 Eh/a0 ::
         :: HOMO-LUMO gap              2.690647903319 eV    ::
         :: SCC energy               -83.376260826045 Eh    ::
         :: -> dispersion             -0.061049498379 Eh    ::
         :: repulsion energy           1.076175612137 Eh    ::

    * Orbital Energies and Occupations

         #    Occupation            Energy/Eh            Energy/eV
      -------------------------------------------------------------
         1        2.0000           -0.6932972             -18.8656
       ...           ...                  ...                  ...
        63        2.0000           -0.4370111             -11.8917
        64        2.0000           -0.4361755             -11.8689
        65        2.0000           -0.4296437             -11.6912
        66        2.0000           -0.4237535             -11.5309
        67        2.0000           -0.4184170             -11.3857
        68        2.0000           -0.4124842             -11.2243
        69        2.0000           -0.4074616             -11.0876
        70        2.0000           -0.4015444             -10.9266
        71        2.0000           -0.3982518             -10.8370
        72        2.0000           -0.3950556             -10.7500
        73        2.0000           -0.3781563             -10.2902
        74        2.0000           -0.3716205             -10.1123
        75        2.0000           -0.3224161              -8.7734 (HOMO)
        76                         -0.2235367              -6.0827 (LUMO)
        77                         -0.2105884              -5.7304
        78                         -0.1543518              -4.2001
        79                         -0.1131048              -3.0777
        80                         -0.0907234              -2.4687
        81                          0.0019731               0.0537
        82                          0.0108398               0.2950
        83                          0.0115263               0.3136
        84                          0.0247130               0.6725
        85                          0.0306652               0.8344
        86                          0.0535222               1.4564
       ...                                ...                  ...
       144                          0.6961055              18.9420
      -------------------------------------------------------------
                  HL-Gap            0.0988795 Eh            2.6906 eV

     #   Z          covCN         q      C6AA      α(0)
     1   6 C        3.755    -0.117    22.803     6.809
     2   6 C        3.858     0.129    18.446     6.108
     3   8 O        1.638    -0.376    20.396     6.096
     4   6 C        3.755    -0.117    22.789     6.807
     5   6 C        3.860     0.129    18.453     6.109
     6   6 C        3.755    -0.118    22.818     6.811
     7   6 C        3.755    -0.116    22.783     6.806
     8   8 O        1.638    -0.370    20.278     6.078
     9   5 B        2.658     0.441    15.468     6.622
    10   6 C        3.823    -0.056    21.557     6.607
    11   6 C        2.892    -0.066    29.640     8.926
    12   6 C        3.681    -0.010    20.976     6.559
    13   1 H        0.925     0.027     2.627     2.535
    14   6 C        3.866    -0.019    20.870     6.496
    15   1 H        0.925     0.043     2.405     2.425
    16   6 C        2.864    -0.086    30.144     9.000
    17   5 B        2.663     0.431    15.557     6.638
    18   8 O        1.638    -0.373    20.344     6.088
    19   6 C        3.860     0.129    18.452     6.109
    20   6 C        3.755    -0.117    22.795     6.808
    21   6 C        3.755    -0.116    22.774     6.805
    22   6 C        3.860     0.129    18.452     6.109
    23   6 C        3.755    -0.116    22.781     6.806
    24   6 C        3.755    -0.117    22.801     6.809
    25   8 O        1.638    -0.372    20.329     6.086
    26   6 C        2.896    -0.026    28.643     8.775
    27   6 C        3.862    -0.019    20.879     6.498
    28   1 H        0.925     0.040     2.443     2.444
    29   6 C        3.852    -0.003    20.603     6.456
    30   6 C        2.889    -0.069    29.718     8.938
    31   6 C        3.683    -0.008    20.934     6.551
    32   1 H        0.925     0.027     2.627     2.535
    33   1 H        0.925     0.055     2.256     2.349
    34   1 H        0.925     0.041     2.439     2.442
    35   1 H        0.925     0.052     2.296     2.369
    36   1 H        0.925     0.053     2.283     2.363
    37   1 H        0.925     0.044     2.390     2.418
    38   1 H        0.925     0.043     2.403     2.424
    39   1 H        0.925     0.041     2.434     2.440
    40   1 H        0.925     0.053     2.282     2.362
    41   1 H        0.925     0.056     2.249     2.345
    42   1 H        0.925     0.044     2.399     2.422
    43   1 H        0.925     0.054     2.276     2.359
    44   1 H        0.925     0.044     2.401     2.423
    45   1 H        0.925     0.028     2.608     2.525
    46   1 H        0.925     0.054     2.274     2.358
    47   1 H        0.925     0.039     2.459     2.452
    48   1 H        0.925     0.052     2.297     2.370
    49   1 H        0.925     0.052     2.300     2.371
    50   1 H        0.925     0.044     2.401     2.423
    51   1 H        0.925     0.042     2.423     2.434
    52   1 H        0.925     0.042     2.420     2.433
    53   1 H        0.925     0.052     2.294     2.369
    54   1 H        0.925     0.044     2.399     2.422
    55   1 H        0.925     0.039     2.457     2.451
    56   1 H        0.925     0.052     2.297     2.370
    57   1 H        0.925     0.054     2.269     2.356
    58   1 H        0.925     0.038     2.476     2.461
    59   1 H        0.925     0.033     2.541     2.493
    60   1 H        0.925     0.017     2.780     2.607

Wiberg/Mayer (AO) data.
largest (>0.10) Wiberg bond orders for each atom

     #   Z sym  total        # sym  WBO       # sym  WBO       # sym  WBO
 ---------------------------------------------------------------------------
     1   6 C    3.994 --     2 C    0.997    34 H    0.984    33 H    0.982
                            35 H    0.982
     2   6 C    3.942 --     1 C    0.997     4 C    0.991     3 O    0.950
                             5 C    0.937
     3   8 O    2.229 --     9 B    1.131     2 C    0.950
     4   6 C    3.994 --     2 C    0.991    38 H    0.984    37 H    0.984
                            36 H    0.983
     5   6 C    3.940 --     6 C    0.997     7 C    0.991     8 O    0.949
                             2 C    0.937
     6   6 C    3.994 --     5 C    0.997    39 H    0.984    41 H    0.982
                            40 H    0.982
     7   6 C    3.995 --     5 C    0.991    42 H    0.984    44 H    0.984
                            43 H    0.983
     8   8 O    2.240 --     9 B    1.141     5 C    0.949
     9   5 B    3.376 --     8 O    1.141     3 O    1.131    10 C    0.990
    10   6 C    3.933 --    11 C    1.203     9 B    0.990    27 C    0.871
                            29 C    0.693
    11   6 C    3.979 --    12 C    1.545    10 C    1.203    45 H    0.964
                            30 C    0.161
    12   6 C    3.966 --    11 C    1.545    13 H    0.970    14 C    0.936
                            31 C    0.383
    13   1 H    0.999 --    12 C    0.970
    14   6 C    3.971 --    16 C    1.002    15 H    0.968    31 C    0.944
                            12 C    0.936
    15   1 H    0.998 --    14 C    0.968
    16   6 C    3.977 --    26 C    1.818    17 B    1.004    14 C    1.002
    17   5 B    3.376 --    25 O    1.127    18 O    1.124    16 C    1.004
    18   8 O    2.230 --    17 B    1.124    19 C    0.953
    19   6 C    3.943 --    20 C    0.997    21 C    0.991    18 O    0.953
                            22 C    0.936
    20   6 C    3.994 --    19 C    0.997    47 H    0.985    46 H    0.983
                            48 H    0.982
    21   6 C    3.994 --    19 C    0.991    51 H    0.984    50 H    0.984
                            49 H    0.983
    22   6 C    3.943 --    24 C    0.996    23 C    0.990    25 O    0.954
                            19 C    0.936
    23   6 C    3.995 --    22 C    0.990    52 H    0.985    54 H    0.984
                            53 H    0.983
    24   6 C    3.994 --    22 C    0.996    55 H    0.985    57 H    0.983
                            56 H    0.982
    25   8 O    2.231 --    17 B    1.127    22 C    0.954
    26   6 C    3.989 --    16 C    1.818    27 C    1.055    58 H    0.965
    27   6 C    3.951 --    26 C    1.055    28 H    0.969    29 C    0.919
                            10 C    0.871
    28   1 H    0.998 --    27 C    0.969
    29   6 C    3.951 --    30 C    1.218    59 H    0.971    27 C    0.919
                            10 C    0.693
    30   6 C    3.971 --    31 C    1.529    29 C    1.218    60 H    0.966
                            11 C    0.161
    31   6 C    3.963 --    30 C    1.529    32 H    0.971    14 C    0.944
                            12 C    0.383
    32   1 H    0.999 --    31 C    0.971
    33   1 H    0.997 --     1 C    0.982
    34   1 H    0.998 --     1 C    0.984
    35   1 H    0.997 --     1 C    0.982
    36   1 H    0.997 --     4 C    0.983
    37   1 H    0.998 --     4 C    0.984
    38   1 H    0.998 --     4 C    0.984
    39   1 H    0.998 --     6 C    0.984
    40   1 H    0.997 --     6 C    0.982
    41   1 H    0.997 --     6 C    0.982
    42   1 H    0.998 --     7 C    0.984
    43   1 H    0.997 --     7 C    0.983
    44   1 H    0.998 --     7 C    0.984
    45   1 H    0.999 --    11 C    0.964
    46   1 H    0.997 --    20 C    0.983
    47   1 H    0.998 --    20 C    0.985
    48   1 H    0.997 --    20 C    0.982
    49   1 H    0.997 --    21 C    0.983
    50   1 H    0.998 --    21 C    0.984
    51   1 H    0.998 --    21 C    0.984
    52   1 H    0.998 --    23 C    0.985
    53   1 H    0.997 --    23 C    0.983
    54   1 H    0.998 --    23 C    0.984
    55   1 H    0.998 --    24 C    0.985
    56   1 H    0.997 --    24 C    0.982
    57   1 H    0.997 --    24 C    0.983
    58   1 H    0.998 --    26 C    0.965
    59   1 H    0.998 --    29 C    0.971
    60   1 H    0.999 --    30 C    0.966
 ---------------------------------------------------------------------------

molecular dipole:
                 x           y           z       tot (Debye)
 q only:       -0.215      -0.567      -0.099
   full:       -0.119      -0.633      -0.159       1.686

           -------------------------------------------------
          | TOTAL ENERGY              -82.299401286163 Eh   |
          | GRADIENT NORM               0.000836690460 Eh/α |
          | HOMO-LUMO GAP               2.690647903319 eV   |
           -------------------------------------------------

 * finished run on 2022/07/09 at 18:33:31.436
