   * xtb version 6.5.0 (homebrew) compiled by 'nhattrup@GPGGRP-SHANNON.CHEME.CMU.EDU' on
          program call               : /opt/homebrew/bin/xtb bvl_bpin2_scan_3-6_xtb.xyz --chrg 0 --uhf 0 --opt --input xcontrol_bvl_bpin2_scan_3-6_xtb

   ID    Z sym.   atoms
    1    6 C      1, 2, 4-7, 10-12, 14, 16, 19-24, 26, 27, 29-31
    2    8 O      3, 8, 18, 25
    3    5 B      9, 17
    4    1 H      13, 15, 28, 32-60
constraining bond 12 31 to    1.8333000 Å, actual value:    1.7204405 Å
constraining bond 10 29 to    1.8333000 Å, actual value:    1.9465269 Å

          :  Hamiltonian                  GFN2-xTB          :
 * total energy  :   -82.1201505 Eh     change       -0.8146941E-09 Eh
 * total energy  :   -82.2567776 Eh     change       -0.1366271E+00 Eh
 * total energy  :   -82.2975780 Eh     change       -0.4080041E-01 Eh
 * total energy  :   -82.2983956 Eh     change       -0.8175765E-03 Eh
 * total energy  :   -82.2954938 Eh     change        0.2901795E-02 Eh
 * total energy  :   -82.2987334 Eh     change       -0.3239620E-02 Eh
 * total energy  :   -82.2989554 Eh     change       -0.2220416E-03 Eh
 * total energy  :   -82.2991333 Eh     change       -0.1778649E-03 Eh
 * total energy  :   -82.2991861 Eh     change       -0.5284630E-04 Eh
 * total energy  :   -82.2992805 Eh     change       -0.9441762E-04 Eh
 * total energy  :   -82.2993189 Eh     change       -0.1307323E-04 Eh
 * total energy  :   -82.2993313 Eh     change       -0.1246075E-04 Eh
 * total energy  :   -82.2993423 Eh     change       -0.1096991E-04 Eh
 * total energy  :   -82.2993600 Eh     change       -0.1768765E-04 Eh
 * total energy  :   -82.2993684 Eh     change       -0.8409697E-05 Eh
 * total energy  :   -82.2993793 Eh     change       -0.1093871E-04 Eh
 * total energy  :   -82.2993863 Eh     change       -0.6921185E-05 Eh
 * total energy  :   -82.2993926 Eh     change       -0.6309745E-05 Eh
 * total energy  :   -82.2993965 Eh     change       -0.3875803E-05 Eh
   *** GEOMETRY OPTIMIZATION CONVERGED AFTER 20 ITERATIONS ***

 final structure:
================
60
 xtb: 6.5.0 (homebrew)
C            3.45459168746621      -37.74304141103443       15.92273393375805
C            3.71075234215023      -38.14803743412801       17.37273518425575
O            3.24168131270443      -37.11962856307263       18.24437472708919
C            2.89581225449869      -39.40808772500167       17.69108139993271
C            5.22773541943345      -38.28356973036359       17.76534292190743
C            5.74439950754215      -39.71776097476905       17.85468264214335
C            6.15718117675347      -37.46968141822634       16.85646223802422
O            5.28387828667877      -37.68066877572933       19.05839458707175
B            4.14798784575758      -36.94951576484025       19.25563326715478
C            3.90312392618107      -36.03490643818838       20.49541475990677
C            4.93719663703972      -35.89326562156476       21.42968497975490
C            4.97770743785511      -34.99968352164372       22.48697446873972
H            5.92068510426423      -34.90537931049102       23.01020262873939
C            3.82515478556005      -34.27483384129319       23.10648036099970
H            4.06376889466329      -33.88465147526696       24.09281031127545
C            2.46138965992856      -34.88252749920308       23.12578682313507
B            1.70533314720098      -34.89541365501299       24.48984683352489
O            2.20665620037279      -34.36951087097614       25.64921247649452
C            1.33877046094486      -34.72099865932343       26.72616991015842
C            1.18205391481402      -33.52797574885728       27.66641240162091
C            2.01448877267986      -35.87156444330152       27.48321816000851
C            0.02100079212594      -35.16349962404897       25.99138353681129
C           -1.00848836931505      -34.03203568152008       25.87680338397308
C           -0.65813819685797      -36.40094295274336       26.57428321203189
O            0.46946141016164      -35.45079197839871       24.66760992794941
C            1.90319584172836      -35.43051974801562       22.04587331378821
C            2.49232812452869      -35.53403820123589       20.69540388572407
H            1.80753224286000      -36.01816095505531       20.00381571398706
C            3.20829030986369      -34.39725499831348       20.05275431523390
C            3.86994312487185      -33.35531160650767       20.68898936573661
C            4.28587518546014      -33.36948110282348       22.01345079448609
H            4.92416971652759      -32.55443547278742       22.33026234287283
H            2.38147968740402      -37.69070529017318       15.75584523733522
H            3.87967102869003      -38.48086806978339       15.24781281073006
H            3.87634038430006      -36.76711913271586       15.70513486624004
H            1.84148320573139      -39.18349217577092       17.54630346617162
H            3.03830550768088      -39.69583739037703       18.72960669983576
H            3.17395267438698      -40.23086000112955       17.03934521795822
H            5.63517413019648      -40.21955661793130       16.89709361671961
H            5.21642466509205      -40.27674897880369       18.62029674818117
H            6.79784077420699      -39.69474952336175       18.12205428882165
H            6.19652082707386      -37.89038452774988       15.85634114907787
H            7.15607377473987      -37.48264472490278       17.28640618321811
H            5.82696977038366      -36.43496734209506       16.80918712020802
H            5.87511778310539      -36.35266784619943       21.14432146480763
H            2.14176154137445      -33.31712416808580       28.13179900555719
H            0.45732202177067      -33.75554761995318       28.44348405424981
H            0.86817718599107      -32.64065595821103       27.12633977170043
H            2.99212152079306      -35.53564718594535       27.82145114002703
H            2.16256006638020      -36.72066786344521       26.82071403516476
H            1.42709405385717      -36.17400554212369       28.34493290931709
H           -1.42890237540867      -33.78202254262952       26.84625185899941
H           -1.80853753814954      -34.36070212724664       25.21750188794109
H           -0.55080475939829      -33.15094070342020       25.43416599315349
H           -0.93094242046819      -36.22909805535948       27.61195870495336
H           -0.01174655773370      -37.26996473858836       26.50741382792327
H           -1.55954661994299      -36.60791937401159       26.00287332948260
H            0.91562895956233      -35.85895669947630       22.15160918913920
H            3.06713572970624      -34.31680239134478       18.98387662351765
H            4.31151602222983      -32.59915820542723       20.05140399127878

          :  Hamiltonian                  GFN2-xTB          :
         :: total energy             -82.299396454109 Eh    ::
         :: gradient norm              0.000794002807 Eh/a0 ::
         :: HOMO-LUMO gap              2.931735727883 eV    ::
         :: SCC energy               -83.376269475951 Eh    ::
         :: -> dispersion             -0.060926447666 Eh    ::
         :: repulsion energy           1.076237016672 Eh    ::

    * Orbital Energies and Occupations

         #    Occupation            Energy/Eh            Energy/eV
      -------------------------------------------------------------
         1        2.0000           -0.6905013             -18.7895
       ...           ...                  ...                  ...
        63        2.0000           -0.4356885             -11.8557
        64        2.0000           -0.4339103             -11.8073
        65        2.0000           -0.4305462             -11.7158
        66        2.0000           -0.4221802             -11.4881
        67        2.0000           -0.4192052             -11.4072
        68        2.0000           -0.4146499             -11.2832
        69        2.0000           -0.4073045             -11.0833
        70        2.0000           -0.3994144             -10.8686
        71        2.0000           -0.3971724             -10.8076
        72        2.0000           -0.3951240             -10.7519
        73        2.0000           -0.3814157             -10.3788
        74        2.0000           -0.3612057              -9.8289
        75        2.0000           -0.3328890              -9.0584 (HOMO)
        76                         -0.2251497              -6.1266 (LUMO)
        77                         -0.2057658              -5.5992
        78                         -0.1717677              -4.6740
        79                         -0.1144380              -3.1140
        80                         -0.0945576              -2.5730
        81                         -0.0357128              -0.9718
        82                          0.0063459               0.1727
        83                          0.0097526               0.2654
        84                          0.0266115               0.7241
        85                          0.0293238               0.7979
        86                          0.0560204               1.5244
       ...                                ...                  ...
       144                          0.6956644              18.9300
      -------------------------------------------------------------
                  HL-Gap            0.1077393 Eh            2.9317 eV

     #   Z          covCN         q      C6AA      α(0)
     1   6 C        3.755    -0.117    22.795     6.808
     2   6 C        3.858     0.129    18.447     6.108
     3   8 O        1.638    -0.376    20.401     6.097
     4   6 C        3.755    -0.116    22.782     6.806
     5   6 C        3.859     0.129    18.450     6.109
     6   6 C        3.755    -0.118    22.811     6.810
     7   6 C        3.755    -0.116    22.774     6.805
     8   8 O        1.638    -0.372    20.315     6.084
     9   5 B        2.658     0.437    15.511     6.632
    10   6 C        3.659    -0.065    22.038     6.737
    11   6 C        2.891    -0.059    29.456     8.898
    12   6 C        3.685    -0.015    21.040     6.567
    13   1 H        0.925     0.028     2.608     2.526
    14   6 C        3.865    -0.016    20.818     6.488
    15   1 H        0.925     0.044     2.395     2.420
    16   6 C        2.863    -0.083    30.084     8.991
    17   5 B        2.662     0.432    15.558     6.639
    18   8 O        1.638    -0.372    20.327     6.086
    19   6 C        3.859     0.129    18.455     6.109
    20   6 C        3.755    -0.117    22.798     6.808
    21   6 C        3.755    -0.116    22.777     6.805
    22   6 C        3.860     0.129    18.455     6.109
    23   6 C        3.755    -0.116    22.784     6.806
    24   6 C        3.755    -0.117    22.805     6.809
    25   8 O        1.638    -0.371    20.301     6.082
    26   6 C        2.896    -0.026    28.655     8.777
    27   6 C        3.863    -0.014    20.784     6.483
    28   1 H        0.925     0.043     2.406     2.426
    29   6 C        3.688    -0.011    20.973     6.555
    30   6 C        2.888    -0.063    29.573     8.916
    31   6 C        3.687    -0.012    20.982     6.557
    32   1 H        0.925     0.029     2.605     2.524
    33   1 H        0.925     0.055     2.264     2.353
    34   1 H        0.925     0.040     2.449     2.447
    35   1 H        0.925     0.051     2.303     2.373
    36   1 H        0.925     0.052     2.290     2.367
    37   1 H        0.925     0.044     2.396     2.421
    38   1 H        0.925     0.043     2.413     2.429
    39   1 H        0.925     0.040     2.444     2.445
    40   1 H        0.925     0.053     2.289     2.366
    41   1 H        0.925     0.055     2.259     2.350
    42   1 H        0.925     0.043     2.409     2.427
    43   1 H        0.925     0.053     2.286     2.364
    44   1 H        0.925     0.043     2.405     2.425
    45   1 H        0.925     0.030     2.592     2.518
    46   1 H        0.925     0.054     2.270     2.356
    47   1 H        0.925     0.040     2.454     2.450
    48   1 H        0.925     0.052     2.296     2.369
    49   1 H        0.925     0.052     2.296     2.370
    50   1 H        0.925     0.044     2.399     2.422
    51   1 H        0.925     0.042     2.419     2.432
    52   1 H        0.925     0.043     2.416     2.430
    53   1 H        0.925     0.052     2.290     2.366
    54   1 H        0.925     0.044     2.397     2.421
    55   1 H        0.925     0.040     2.452     2.449
    56   1 H        0.925     0.052     2.294     2.369
    57   1 H        0.925     0.054     2.265     2.354
    58   1 H        0.925     0.038     2.475     2.460
    59   1 H        0.926     0.033     2.550     2.497
    60   1 H        0.925     0.018     2.762     2.599

Wiberg/Mayer (AO) data.
largest (>0.10) Wiberg bond orders for each atom

     #   Z sym  total        # sym  WBO       # sym  WBO       # sym  WBO
 ---------------------------------------------------------------------------
     1   6 C    3.994 --     2 C    0.997    34 H    0.984    33 H    0.982
                            35 H    0.982
     2   6 C    3.943 --     1 C    0.997     4 C    0.991     3 O    0.952
                             5 C    0.936
     3   8 O    2.226 --     9 B    1.124     2 C    0.952
     4   6 C    3.994 --     2 C    0.991    38 H    0.984    37 H    0.984
                            36 H    0.983
     5   6 C    3.941 --     6 C    0.997     7 C    0.991     8 O    0.951
                             2 C    0.936
     6   6 C    3.994 --     5 C    0.997    39 H    0.984    41 H    0.982
                            40 H    0.982
     7   6 C    3.995 --     5 C    0.991    42 H    0.984    44 H    0.984
                            43 H    0.983
     8   8 O    2.233 --     9 B    1.133     5 C    0.951
     9   5 B    3.379 --     8 O    1.133     3 O    1.124    10 C    1.003
    10   6 C    3.938 --    11 C    1.365     9 B    1.003    27 C    0.907
                            29 C    0.459
    11   6 C    3.983 --    12 C    1.431    10 C    1.365    45 H    0.963
                            30 C    0.119
    12   6 C    3.958 --    11 C    1.431    13 H    0.972    14 C    0.936
                            31 C    0.462
    13   1 H    0.999 --    12 C    0.972
    14   6 C    3.973 --    16 C    1.007    15 H    0.968    31 C    0.947
                            12 C    0.936
    15   1 H    0.998 --    14 C    0.968
    16   6 C    3.977 --    26 C    1.834    14 C    1.007    17 B    1.000
    17   5 B    3.376 --    25 O    1.131    18 O    1.127    16 C    1.000
    18   8 O    2.232 --    17 B    1.127    19 C    0.953
    19   6 C    3.943 --    20 C    0.997    21 C    0.991    18 O    0.953
                            22 C    0.936
    20   6 C    3.994 --    19 C    0.997    47 H    0.984    46 H    0.983
                            48 H    0.982
    21   6 C    3.994 --    19 C    0.991    51 H    0.984    50 H    0.984
                            49 H    0.983
    22   6 C    3.942 --    24 C    0.996    23 C    0.991    25 O    0.953
                            19 C    0.936
    23   6 C    3.995 --    22 C    0.991    52 H    0.984    54 H    0.984
                            53 H    0.983
    24   6 C    3.994 --    22 C    0.996    55 H    0.985    57 H    0.983
                            56 H    0.982
    25   8 O    2.235 --    17 B    1.131    22 C    0.953
    26   6 C    3.988 --    16 C    1.834    27 C    1.033    58 H    0.966
    27   6 C    3.974 --    26 C    1.033    28 H    0.968    29 C    0.946
                            10 C    0.907
    28   1 H    0.998 --    27 C    0.968
    29   6 C    3.954 --    30 C    1.401    59 H    0.972    27 C    0.946
                            10 C    0.459
    30   6 C    3.977 --    31 C    1.409    29 C    1.401    60 H    0.965
                            11 C    0.119
    31   6 C    3.950 --    30 C    1.409    32 H    0.973    14 C    0.947
                            12 C    0.462
    32   1 H    0.999 --    31 C    0.973
    33   1 H    0.997 --     1 C    0.982
    34   1 H    0.998 --     1 C    0.984
    35   1 H    0.997 --     1 C    0.982
    36   1 H    0.997 --     4 C    0.983
    37   1 H    0.998 --     4 C    0.984
    38   1 H    0.998 --     4 C    0.984
    39   1 H    0.998 --     6 C    0.984
    40   1 H    0.997 --     6 C    0.982
    41   1 H    0.997 --     6 C    0.982
    42   1 H    0.998 --     7 C    0.984
    43   1 H    0.997 --     7 C    0.983
    44   1 H    0.998 --     7 C    0.984
    45   1 H    0.999 --    11 C    0.963
    46   1 H    0.997 --    20 C    0.983
    47   1 H    0.998 --    20 C    0.984
    48   1 H    0.997 --    20 C    0.982
    49   1 H    0.997 --    21 C    0.983
    50   1 H    0.998 --    21 C    0.984
    51   1 H    0.998 --    21 C    0.984
    52   1 H    0.998 --    23 C    0.984
    53   1 H    0.997 --    23 C    0.983
    54   1 H    0.998 --    23 C    0.984
    55   1 H    0.998 --    24 C    0.985
    56   1 H    0.997 --    24 C    0.982
    57   1 H    0.997 --    24 C    0.983
    58   1 H    0.998 --    26 C    0.966
    59   1 H    0.998 --    29 C    0.972
    60   1 H    0.999 --    30 C    0.965
 ---------------------------------------------------------------------------

molecular dipole:
                 x           y           z       tot (Debye)
 q only:       -0.268      -0.476       0.041
   full:       -0.142      -0.542      -0.045       1.429

           -------------------------------------------------
          | TOTAL ENERGY              -82.299396454109 Eh   |
          | GRADIENT NORM               0.000794002807 Eh/α |
          | HOMO-LUMO GAP               2.931735727883 eV   |
           -------------------------------------------------

 * finished run on 2022/07/09 at 18:33:23.659
