   * xtb version 6.5.0 (homebrew) compiled by 'nhattrup@GPGGRP-SHANNON.CHEME.CMU.EDU' on
          program call               : /opt/homebrew/bin/xtb bvl_bpin2_scan_3-0_xtb.xyz --chrg 0 --uhf 0 --opt --input xcontrol_bvl_bpin2_scan_3-0_xtb

   ID    Z sym.   atoms
    1    6 C      1, 2, 4-7, 10-12, 14, 16, 19-24, 26, 27, 29-31
    2    8 O      3, 8, 18, 25
    3    5 B      9, 17
    4    1 H      13, 15, 28, 32-60
constraining bond 12 31 to    1.8333000 Å, actual value:    1.7159181 Å
constraining bond 10 29 to    2.5000000 Å, actual value:    2.4989870 Å

          :  Hamiltonian                  GFN2-xTB          :
 * total energy  :   -82.2130584 Eh     change       -0.1210182E-08 Eh
 * total energy  :   -82.2721300 Eh     change       -0.5907158E-01 Eh
 * total energy  :   -82.3001579 Eh     change       -0.2802790E-01 Eh
 * total energy  :   -82.3004447 Eh     change       -0.2867900E-03 Eh
 * total energy  :   -82.3002773 Eh     change        0.1674425E-03 Eh
 * total energy  :   -82.2997351 Eh     change        0.5421526E-03 Eh
 * total energy  :   -82.3006135 Eh     change       -0.8784314E-03 Eh
 * total energy  :   -82.3006472 Eh     change       -0.3363378E-04 Eh
 * total energy  :   -82.3006578 Eh     change       -0.1063139E-04 Eh
 * total energy  :   -82.3006829 Eh     change       -0.2506114E-04 Eh
 * total energy  :   -82.3009995 Eh     change       -0.9758125E-05 Eh
 * total energy  :   -82.3010113 Eh     change       -0.1188688E-04 Eh
 * total energy  :   -82.3010208 Eh     change       -0.9463512E-05 Eh
 * total energy  :   -82.3010296 Eh     change       -0.8813292E-05 Eh
 * total energy  :   -82.3010397 Eh     change       -0.1012518E-04 Eh
 * total energy  :   -82.3010497 Eh     change       -0.9997299E-05 Eh
 * total energy  :   -82.3010573 Eh     change       -0.7559516E-05 Eh
 * total energy  :   -82.3010623 Eh     change       -0.5030139E-05 Eh
 * total energy  :   -82.3010643 Eh     change       -0.1985395E-05 Eh
   *** GEOMETRY OPTIMIZATION CONVERGED AFTER 44 ITERATIONS ***

 final structure:
================
60
 xtb: 6.5.0 (homebrew)
C            3.28087340716165      -38.06086874943433       16.15775079748805
C            3.59873698145028      -38.26639988236141       17.63720913826939
O            3.23089860096787      -37.10095307155837       18.37114720804545
C            2.74432196088969      -39.42045013949694       18.17789961335346
C            5.12583752546966      -38.43005077239592       17.97138131914128
C            5.58251561235445      -39.86778174889145       18.20944321541823
C            6.03759436418121      -37.78224018809164       16.92107515092909
O            5.27635652368492      -37.67761111214080       19.17386490287313
B            4.19076488916189      -36.85359893305484       19.31668517836665
C            4.05483131376815      -35.78442922653156       20.43201436057356
C            5.07787736345845      -35.54529182764806       21.28127354862973
C            5.13975803235255      -34.62012382965295       22.36600497259845
H            6.08929219347785      -34.51580701044930       22.86798018200945
C            3.95105692323283      -34.02460902262340       23.08904405665478
H            4.16867699393086      -33.77491667532158       24.12435684099414
C            2.61058727605962      -34.65831780291456       22.98053644977601
B            1.81378373901088      -34.85987086027928       24.30862690793639
O            2.28224511776363      -34.47671279200351       25.53604184521617
C            1.39245024800275      -34.96181524554818       26.54066243712398
C            1.20156774676977      -33.89118995835847       27.61273485497367
C            2.06165626216871      -36.18958233990858       27.17161018135328
C            0.09746845626701      -35.32211482273845       25.72489105519177
C           -0.94185944687100      -34.19387555442879       25.72521016160037
C           -0.58202309203026      -36.62574546903596       26.13846158471103
O            0.58039357895736      -35.44147316831441       24.38676836865298
C            2.09985954416103      -35.06710515859302       21.81447100699106
C            2.76563960856403      -34.95583938826927       20.47640331425288
H            2.09767620427891      -35.36685627465794       19.71686251964186
C            3.06317773103196      -33.51392536620817       20.11040875525229
C            3.82134358149920      -32.68970307848411       20.84024672772101
C            4.40520765639926      -32.96569840398254       22.12057919776333
H            5.07510769754357      -32.22078145573906       22.52206236576804
H            2.20361708838289      -37.97600886147772       16.03770773046526
H            3.63363355569930      -38.90870240960449       15.57661878403310
H            3.73378551736988      -37.14941804678092       15.78135550389924
H            1.69546193634366      -39.15672870668863       18.06215111603055
H            2.93843840577093      -39.56605774734051       19.23763545206094
H            2.93933943440307      -40.34155542661608       17.63687536028363
H            5.39044059785021      -40.47423080123743       17.32837516802926
H            5.07864431846561      -40.30226835576285       19.06663084417143
H            6.65080261741548      -39.86864182550176       18.41131038812916
H            6.00612432709267      -38.32813153281997       15.98286577773667
H            7.05723067069602      -37.78654142895953       17.29955453993200
H            5.74543233974918      -36.74807740479254       16.75672225422225
H            5.98149616149537      -36.12532934749353       21.12920376318313
H            2.14781745711098      -33.73210844158918       28.12393817488861
H            0.46025193974647      -34.21445194442975       28.33847790105432
H            0.89333107728910      -32.94744369849415       27.17480699323607
H            3.02717818570084      -35.88875193565283       27.57190352863160
H            2.23469491457628      -36.95239371809972       26.41670695841076
H            1.45689485348870      -36.59690429104071       27.97618273480117
H           -1.38453105275177      -34.06769500007605       26.70869653477810
H           -1.72475342407802      -34.44654343784465       25.01395756472248
H           -0.48514496456037      -33.26148122082414       25.40322683916887
H           -0.88066486351067      -36.57933456684447       27.18228302245067
H            0.07431495608721      -37.47617885074744       25.98568508233630
H           -1.46781866057442      -36.77016683362785       25.52501943824926
H            1.12149304690697      -35.52807146681662       21.83182011537718
H            2.70060614537060      -33.18564011105298       19.14768953854955
H            4.04193882334013      -31.70239325866579       20.44869067191147

          :  Hamiltonian                  GFN2-xTB          :
         :: total energy             -82.301064319474 Eh    ::
         :: gradient norm              0.000294932542 Eh/a0 ::
         :: HOMO-LUMO gap              2.745556227978 eV    ::
         :: SCC energy               -83.373941350805 Eh    ::
         :: -> dispersion             -0.061104406029 Eh    ::
         :: repulsion energy           1.071774693805 Eh    ::

    * Orbital Energies and Occupations

         #    Occupation            Energy/Eh            Energy/eV
      -------------------------------------------------------------
         1        2.0000           -0.6881271             -18.7249
       ...           ...                  ...                  ...
        63        2.0000           -0.4365844             -11.8801
        64        2.0000           -0.4308104             -11.7229
        65        2.0000           -0.4261271             -11.5955
        66        2.0000           -0.4199915             -11.4286
        67        2.0000           -0.4181125             -11.3774
        68        2.0000           -0.4118615             -11.2073
        69        2.0000           -0.4041287             -10.9969
        70        2.0000           -0.3978112             -10.8250
        71        2.0000           -0.3945079             -10.7351
        72        2.0000           -0.3937911             -10.7156
        73        2.0000           -0.3912848             -10.6474
        74        2.0000           -0.3603104              -9.8045
        75        2.0000           -0.3362219              -9.1491 (HOMO)
        76                         -0.2353246              -6.4035 (LUMO)
        77                         -0.2182734              -5.9395
        78                         -0.1893183              -5.1516
        79                         -0.1124330              -3.0595
        80                         -0.0978338              -2.6622
        81                         -0.0705937              -1.9210
        82                          0.0081819               0.2226
        83                          0.0142829               0.3887
        84                          0.0282431               0.7685
        85                          0.0316949               0.8625
        86                          0.0565006               1.5375
       ...                                ...                  ...
       144                          0.6747186              18.3600
      -------------------------------------------------------------
                  HL-Gap            0.1008973 Eh            2.7456 eV

     #   Z          covCN         q      C6AA      α(0)
     1   6 C        3.755    -0.117    22.789     6.807
     2   6 C        3.859     0.129    18.450     6.109
     3   8 O        1.638    -0.373    20.346     6.089
     4   6 C        3.755    -0.116    22.767     6.804
     5   6 C        3.859     0.129    18.447     6.108
     6   6 C        3.755    -0.117    22.794     6.808
     7   6 C        3.755    -0.116    22.768     6.804
     8   8 O        1.638    -0.376    20.392     6.096
     9   5 B        2.660     0.431    15.576     6.645
    10   6 C        2.868    -0.090    30.256     9.017
    11   6 C        2.893    -0.029    28.721     8.787
    12   6 C        3.691    -0.022    21.149     6.581
    13   1 H        0.926     0.032     2.554     2.499
    14   6 C        3.863    -0.006    20.647     6.462
    15   1 H        0.925     0.047     2.356     2.400
    16   6 C        2.863    -0.086    30.162     9.002
    17   5 B        2.660     0.431    15.567     6.642
    18   8 O        1.638    -0.373    20.347     6.089
    19   6 C        3.859     0.129    18.455     6.110
    20   6 C        3.755    -0.117    22.801     6.809
    21   6 C        3.755    -0.116    22.781     6.806
    22   6 C        3.859     0.129    18.456     6.110
    23   6 C        3.755    -0.117    22.787     6.807
    24   6 C        3.755    -0.118    22.808     6.810
    25   8 O        1.638    -0.370    20.278     6.079
    26   6 C        2.901    -0.023    28.589     8.767
    27   6 C        3.860    -0.018    20.862     6.496
    28   1 H        0.924     0.046     2.375     2.410
    29   6 C        2.896    -0.038    28.932     8.819
    30   6 C        2.888    -0.036    28.885     8.811
    31   6 C        3.693    -0.019    21.089     6.571
    32   1 H        0.926     0.032     2.556     2.500
    33   1 H        0.925     0.054     2.275     2.358
    34   1 H        0.925     0.039     2.468     2.457
    35   1 H        0.925     0.051     2.304     2.374
    36   1 H        0.925     0.052     2.301     2.372
    37   1 H        0.925     0.043     2.408     2.427
    38   1 H        0.925     0.041     2.432     2.439
    39   1 H        0.925     0.039     2.462     2.454
    40   1 H        0.925     0.051     2.301     2.372
    41   1 H        0.925     0.053     2.278     2.361
    42   1 H        0.925     0.042     2.426     2.436
    43   1 H        0.925     0.051     2.307     2.375
    44   1 H        0.925     0.043     2.408     2.427
    45   1 H        0.925     0.036     2.497     2.471
    46   1 H        0.925     0.054     2.270     2.356
    47   1 H        0.925     0.040     2.450     2.448
    48   1 H        0.925     0.052     2.295     2.369
    49   1 H        0.925     0.052     2.296     2.369
    50   1 H        0.925     0.044     2.399     2.422
    51   1 H        0.925     0.043     2.414     2.430
    52   1 H        0.925     0.043     2.411     2.428
    53   1 H        0.925     0.053     2.285     2.364
    54   1 H        0.925     0.044     2.398     2.422
    55   1 H        0.925     0.040     2.448     2.447
    56   1 H        0.925     0.052     2.294     2.368
    57   1 H        0.925     0.055     2.260     2.351
    58   1 H        0.925     0.037     2.488     2.467
    59   1 H        0.926     0.027     2.632     2.537
    60   1 H        0.925     0.025     2.655     2.548

Wiberg/Mayer (AO) data.
largest (>0.10) Wiberg bond orders for each atom

     #   Z sym  total        # sym  WBO       # sym  WBO       # sym  WBO
 ---------------------------------------------------------------------------
     1   6 C    3.994 --     2 C    0.996    34 H    0.985    33 H    0.983
                            35 H    0.982
     2   6 C    3.944 --     1 C    0.996     4 C    0.990     3 O    0.955
                             5 C    0.936
     3   8 O    2.227 --     9 B    1.120     2 C    0.955
     4   6 C    3.994 --     2 C    0.990    38 H    0.985    37 H    0.984
                            36 H    0.983
     5   6 C    3.943 --     6 C    0.996     7 C    0.990     8 O    0.955
                             2 C    0.936
     6   6 C    3.994 --     5 C    0.996    39 H    0.985    41 H    0.983
                            40 H    0.982
     7   6 C    3.995 --     5 C    0.990    42 H    0.985    44 H    0.984
                            43 H    0.983
     8   8 O    2.223 --     9 B    1.119     5 C    0.955
     9   5 B    3.379 --     3 O    1.120     8 O    1.119    10 C    1.017
    10   6 C    3.972 --    11 C    1.706     9 B    1.017    27 C    0.958
    11   6 C    3.990 --    10 C    1.706    12 C    1.195    45 H    0.960
    12   6 C    3.935 --    11 C    1.195    13 H    0.975    14 C    0.924
                            31 C    0.673
    13   1 H    0.999 --    12 C    0.975
    14   6 C    3.974 --    16 C    1.030    15 H    0.967    31 C    0.944
                            12 C    0.924
    15   1 H    0.997 --    14 C    0.967
    16   6 C    3.977 --    26 C    1.825    14 C    1.030    17 B    0.998
    17   5 B    3.376 --    25 O    1.134    18 O    1.127    16 C    0.998
    18   8 O    2.232 --    17 B    1.127    19 C    0.953
    19   6 C    3.943 --    20 C    0.997    21 C    0.991    18 O    0.953
                            22 C    0.936
    20   6 C    3.994 --    19 C    0.997    47 H    0.984    46 H    0.983
                            48 H    0.982
    21   6 C    3.994 --    19 C    0.991    51 H    0.984    50 H    0.984
                            49 H    0.983
    22   6 C    3.942 --    24 C    0.996    23 C    0.991    25 O    0.952
                            19 C    0.936
    23   6 C    3.995 --    22 C    0.991    52 H    0.984    54 H    0.984
                            53 H    0.983
    24   6 C    3.994 --    22 C    0.996    55 H    0.984    57 H    0.982
                            56 H    0.982
    25   8 O    2.238 --    17 B    1.134    22 C    0.952
    26   6 C    3.986 --    16 C    1.825    27 C    1.001    58 H    0.967
    27   6 C    3.994 --    26 C    1.001    29 C    0.980    28 H    0.972
                            10 C    0.958
    28   1 H    0.998 --    27 C    0.972
    29   6 C    3.985 --    30 C    1.789    27 C    0.980    59 H    0.971
    30   6 C    3.991 --    29 C    1.789    31 C    1.165    60 H    0.962
    31   6 C    3.928 --    30 C    1.165    32 H    0.975    14 C    0.944
                            12 C    0.673
    32   1 H    0.999 --    31 C    0.975
    33   1 H    0.997 --     1 C    0.983
    34   1 H    0.998 --     1 C    0.985
    35   1 H    0.997 --     1 C    0.982
    36   1 H    0.997 --     4 C    0.983
    37   1 H    0.998 --     4 C    0.984
    38   1 H    0.998 --     4 C    0.985
    39   1 H    0.998 --     6 C    0.985
    40   1 H    0.997 --     6 C    0.982
    41   1 H    0.997 --     6 C    0.983
    42   1 H    0.998 --     7 C    0.985
    43   1 H    0.997 --     7 C    0.983
    44   1 H    0.998 --     7 C    0.984
    45   1 H    0.999 --    11 C    0.960
    46   1 H    0.997 --    20 C    0.983
    47   1 H    0.998 --    20 C    0.984
    48   1 H    0.997 --    20 C    0.982
    49   1 H    0.997 --    21 C    0.983
    50   1 H    0.998 --    21 C    0.984
    51   1 H    0.998 --    21 C    0.984
    52   1 H    0.998 --    23 C    0.984
    53   1 H    0.997 --    23 C    0.983
    54   1 H    0.998 --    23 C    0.984
    55   1 H    0.998 --    24 C    0.984
    56   1 H    0.997 --    24 C    0.982
    57   1 H    0.997 --    24 C    0.982
    58   1 H    0.999 --    26 C    0.967
    59   1 H    0.999 --    29 C    0.971
    60   1 H    0.999 --    30 C    0.962
 ---------------------------------------------------------------------------

molecular dipole:
                 x           y           z       tot (Debye)
 q only:       -0.259      -0.427       0.338
   full:       -0.172      -0.519       0.322       1.613

           -------------------------------------------------
          | TOTAL ENERGY              -82.301064319474 Eh   |
          | GRADIENT NORM               0.000294932542 Eh/α |
          | HOMO-LUMO GAP               2.745556227978 eV   |
           -------------------------------------------------

 * finished run on 2022/07/09 at 18:32:59.166
