   * xtb version 6.5.0 (homebrew) compiled by 'nhattrup@GPGGRP-SHANNON.CHEME.CMU.EDU' on
          program call               : /opt/homebrew/bin/xtb bvl_bpin2_scan_7-5_xtb.xyz --chrg 0 --uhf 0 --opt --input xcontrol_bvl_bpin2_scan_7-5_xtb

   ID    Z sym.   atoms
    1    6 C      1, 2, 4-7, 10-12, 14, 16, 19-24, 26, 27, 29-31
    2    8 O      3, 8, 18, 25
    3    5 B      9, 17
    4    1 H      13, 15, 28, 32-60
constraining bond 12 31 to    2.2778000 Å, actual value:    2.1655610 Å
constraining bond 10 29 to    1.9444000 Å, actual value:    2.0529537 Å

          :  Hamiltonian                  GFN2-xTB          :
 * total energy  :   -82.1195535 Eh     change       -0.1688775E-08 Eh
 * total energy  :   -82.2526178 Eh     change       -0.1330644E+00 Eh
 * total energy  :   -82.2950886 Eh     change       -0.4247072E-01 Eh
 * total energy  :   -82.2958081 Eh     change       -0.7195768E-03 Eh
 * total energy  :   -82.2962129 Eh     change       -0.4047489E-03 Eh
 * total energy  :   -82.2933458 Eh     change        0.2867138E-02 Eh
 * total energy  :   -82.2968354 Eh     change       -0.3489661E-02 Eh
 * total energy  :   -82.2970058 Eh     change       -0.1703345E-03 Eh
 * total energy  :   -82.2972701 Eh     change       -0.2643905E-03 Eh
 * total energy  :   -82.2974407 Eh     change       -0.1705853E-03 Eh
 * total energy  :   -82.2975589 Eh     change       -0.2970477E-04 Eh
 * total energy  :   -82.2975817 Eh     change       -0.2286027E-04 Eh
 * total energy  :   -82.2975976 Eh     change       -0.1585468E-04 Eh
 * total energy  :   -82.2976094 Eh     change       -0.1179422E-04 Eh
 * total energy  :   -82.2976151 Eh     change       -0.5748203E-05 Eh
 * total energy  :   -82.2976251 Eh     change       -0.9968668E-05 Eh
 * total energy  :   -82.2976048 Eh     change        0.2030697E-04 Eh
 * total energy  :   -82.2976259 Eh     change       -0.2108263E-04 Eh
 * total energy  :   -82.2976307 Eh     change       -0.4814556E-05 Eh
   *** GEOMETRY OPTIMIZATION CONVERGED AFTER 21 ITERATIONS ***

 final structure:
================
60
 xtb: 6.5.0 (homebrew)
C            3.48033315543779      -37.73263594542293       15.90609522356779
C            3.73417685707331      -38.15003017476581       17.35272471737307
O            3.26091878918758      -37.13089329491184       18.23256105609857
C            2.92425035014548      -39.41638181934103       17.65942107819413
C            5.24891979344716      -38.28591972043066       17.74896915677649
C            5.77916108064095      -39.71715049221540       17.78898502404426
C            6.17262596101132      -37.43088444794015       16.87222312811413
O            5.29101910944002      -37.72678528585180       19.06167869304427
B            4.15548901532159      -36.99052112059512       19.26259410702607
C            3.89143120241874      -36.13517628927004       20.52684863244045
C            4.91304534292065      -36.01245136768870       21.51183604544032
C            4.92936157250463      -35.24895804572667       22.62283995017516
H            5.83425579568226      -35.23183032910973       23.21486250555216
C            3.85209062086422      -34.29065965200063       23.05066499233169
H            4.08699848407565      -33.89157406144943       24.03880639542377
C            2.46980005375748      -34.88887111027376       23.11303687390808
B            1.72237111182254      -34.88412022898859       24.48250389081976
O            2.24266125466272      -34.37797917078208       25.64159049690650
C            1.37136588553989      -34.71321214712164       26.72083111684106
C            1.25583137444222      -33.52496776783772       27.67269462723355
C            2.01606350926587      -35.89128566460168       27.46246007940787
C            0.03714343993048      -35.11015429687502       25.99056364983488
C           -0.95679019317661      -33.94626677912805       25.88643645468451
C           -0.67993662132478      -36.32538571628296       26.57472934187007
O            0.47151573221427      -35.40583875982148       24.66395330240098
C            1.90086829922262      -35.45312791806143       22.04643343408710
C            2.48746095330857      -35.57389678168990       20.69543630225953
H            1.79954914929221      -36.06604250756719       20.01101925263788
C            3.15582225610301      -34.40649926446039       20.04180752041771
C            3.78975728373155      -33.32918700277964       20.69713729356300
C            4.07606174495332      -33.22719115361934       22.01390798508869
H            4.62274073015537      -32.35584802514409       22.34795029181369
H            2.40741679292614      -37.68765534385626       15.73576552404874
H            3.91442149855278      -38.45877221567923       15.22419782662751
H            3.89462410770801      -36.75068915159981       15.70156988867163
H            1.86843128062386      -39.19338119749798       17.52314998363366
H            3.07342003780498      -39.71617479511025       18.69374217269619
H            3.20182249600357      -40.23013404034776       16.99619443593393
H            5.67193316667626      -40.18613938583621       16.81460234524396
H            5.25793813486542      -40.30737141135131       18.53560324641915
H            6.83310330437881      -39.69408320228808       18.05461638667535
H            6.22687158537957      -37.82081270987701       15.86028810400433
H            7.16819772735818      -37.43998205318105       17.30994904080631
H            5.82483976677801      -36.40096078720702       16.85279030929630
H            5.80423009659158      -36.58336885967542       21.27811920406366
H            2.22447358283458      -33.34644808960017       28.13299505520504
H            0.53001780099779      -33.73839084898113       28.45280627367043
H            0.96414312971959      -32.62419238065417       27.14254185339449
H            3.00745902479955      -35.59063786210644       27.79358103558586
H            2.12947318086924      -36.73935222544561       26.79178194635781
H            1.42708178209753      -36.18119379575010       28.32743668490474
H           -1.36323067728507      -33.68866426582841       26.85988519900639
H           -1.77078096851400      -34.24672101109891       25.23072082383088
H           -0.47478467563599      -33.07750003816118       25.44534953240808
H           -0.93741291425954      -36.14558618271381       27.61503363406514
H           -0.06567211377040      -37.21678700426759       26.50104732346645
H           -1.59320323802965      -36.49881698325087       26.01104674535133
H            0.91419876323481      -35.88077340885999       22.16511775624649
H            3.07238547113496      -34.36766266131976       18.96718167224122
H            4.11592876208721      -32.52300174669958       20.04908337676751

          :  Hamiltonian                  GFN2-xTB          :
         :: total energy             -82.297630669606 Eh    ::
         :: gradient norm              0.000548285525 Eh/a0 ::
         :: HOMO-LUMO gap              2.704362221784 eV    ::
         :: SCC energy               -83.375897170995 Eh    ::
         :: -> dispersion             -0.062047789047 Eh    ::
         :: repulsion energy           1.077460706455 Eh    ::

    * Orbital Energies and Occupations

         #    Occupation            Energy/Eh            Energy/eV
      -------------------------------------------------------------
         1        2.0000           -0.6894615             -18.7612
       ...           ...                  ...                  ...
        63        2.0000           -0.4338209             -11.8049
        64        2.0000           -0.4327947             -11.7769
        65        2.0000           -0.4239274             -11.5357
        66        2.0000           -0.4222646             -11.4904
        67        2.0000           -0.4187189             -11.3939
        68        2.0000           -0.4162350             -11.3263
        69        2.0000           -0.4025659             -10.9544
        70        2.0000           -0.3984159             -10.8414
        71        2.0000           -0.3966156             -10.7925
        72        2.0000           -0.3938690             -10.7177
        73        2.0000           -0.3896247             -10.6022
        74        2.0000           -0.3580322              -9.7426
        75        2.0000           -0.3387925              -9.2190 (HOMO)
        76                         -0.2394091              -6.5147 (LUMO)
        77                         -0.2170616              -5.9065
        78                         -0.1844530              -5.0192
        79                         -0.1398956              -3.8068
        80                         -0.0960285              -2.6131
        81                         -0.0693727              -1.8877
        82                          0.0088386               0.2405
        83                          0.0102979               0.2802
        84                          0.0274573               0.7472
        85                          0.0297638               0.8099
        86                          0.0561405               1.5277
       ...                                ...                  ...
       144                          0.6816237              18.5479
      -------------------------------------------------------------
                  HL-Gap            0.0993835 Eh            2.7044 eV

     #   Z          covCN         q      C6AA      α(0)
     1   6 C        3.755    -0.117    22.791     6.807
     2   6 C        3.859     0.130    18.438     6.107
     3   8 O        1.638    -0.380    20.469     6.107
     4   6 C        3.755    -0.116    22.778     6.805
     5   6 C        3.860     0.130    18.443     6.107
     6   6 C        3.755    -0.117    22.804     6.809
     7   6 C        3.755    -0.115    22.765     6.803
     8   8 O        1.638    -0.374    20.359     6.091
     9   5 B        2.658     0.434    15.541     6.638
    10   6 C        3.474    -0.070    24.014     7.341
    11   6 C        2.890    -0.043    29.063     8.839
    12   6 C        2.958    -0.035    28.868     8.813
    13   1 H        0.925     0.025     2.658     2.549
    14   6 C        3.864    -0.015    20.797     6.485
    15   1 H        0.924     0.044     2.391     2.418
    16   6 C        2.865    -0.081    30.023     8.982
    17   5 B        2.662     0.432    15.559     6.639
    18   8 O        1.638    -0.370    20.285     6.080
    19   6 C        3.860     0.129    18.456     6.110
    20   6 C        3.755    -0.117    22.797     6.808
    21   6 C        3.755    -0.116    22.777     6.805
    22   6 C        3.860     0.129    18.454     6.109
    23   6 C        3.755    -0.116    22.783     6.806
    24   6 C        3.755    -0.117    22.805     6.809
    25   8 O        1.638    -0.372    20.314     6.084
    26   6 C        2.896    -0.028    28.701     8.784
    27   6 C        3.861    -0.006    20.640     6.461
    28   1 H        0.925     0.046     2.364     2.404
    29   6 C        3.502    -0.015    22.467     7.029
    30   6 C        2.888    -0.041    29.015     8.831
    31   6 C        2.959    -0.030    28.755     8.796
    32   1 H        0.925     0.027     2.636     2.539
    33   1 H        0.925     0.054     2.269     2.356
    34   1 H        0.925     0.040     2.455     2.450
    35   1 H        0.925     0.051     2.306     2.375
    36   1 H        0.925     0.052     2.298     2.371
    37   1 H        0.925     0.044     2.401     2.423
    38   1 H        0.925     0.042     2.417     2.431
    39   1 H        0.925     0.040     2.451     2.448
    40   1 H        0.925     0.052     2.291     2.367
    41   1 H        0.925     0.055     2.264     2.353
    42   1 H        0.925     0.043     2.416     2.431
    43   1 H        0.925     0.052     2.293     2.368
    44   1 H        0.925     0.043     2.415     2.430
    45   1 H        0.925     0.034     2.535     2.490
    46   1 H        0.925     0.054     2.268     2.355
    47   1 H        0.925     0.039     2.456     2.451
    48   1 H        0.925     0.052     2.296     2.370
    49   1 H        0.925     0.052     2.293     2.368
    50   1 H        0.925     0.044     2.400     2.422
    51   1 H        0.925     0.042     2.420     2.433
    52   1 H        0.925     0.043     2.415     2.430
    53   1 H        0.925     0.052     2.292     2.368
    54   1 H        0.925     0.044     2.400     2.423
    55   1 H        0.925     0.040     2.452     2.449
    56   1 H        0.925     0.052     2.295     2.369
    57   1 H        0.925     0.054     2.268     2.355
    58   1 H        0.925     0.038     2.479     2.462
    59   1 H        0.926     0.036     2.496     2.470
    60   1 H        0.925     0.024     2.669     2.555

Wiberg/Mayer (AO) data.
largest (>0.10) Wiberg bond orders for each atom

     #   Z sym  total        # sym  WBO       # sym  WBO       # sym  WBO
 ---------------------------------------------------------------------------
     1   6 C    3.994 --     2 C    0.997    34 H    0.985    33 H    0.983
                            35 H    0.982
     2   6 C    3.943 --     1 C    0.997     4 C    0.991     3 O    0.953
                             5 C    0.937
     3   8 O    2.217 --     9 B    1.114     2 C    0.953
     4   6 C    3.994 --     2 C    0.991    38 H    0.984    37 H    0.984
                            36 H    0.983
     5   6 C    3.942 --     6 C    0.997     7 C    0.991     8 O    0.952
                             2 C    0.937
     6   6 C    3.994 --     5 C    0.997    39 H    0.984    41 H    0.983
                            40 H    0.982
     7   6 C    3.994 --     5 C    0.991    42 H    0.984    44 H    0.984
                            43 H    0.983
     8   8 O    2.226 --     9 B    1.123     5 C    0.952
     9   5 B    3.386 --     8 O    1.123     3 O    1.114    10 C    1.022
    10   6 C    3.919 --    11 C    1.231     9 B    1.022    27 C    0.912
                            29 C    0.519    31 C    0.115
    11   6 C    3.991 --    12 C    1.699    10 C    1.231    45 H    0.961
    12   6 C    3.979 --    11 C    1.699    14 C    0.972    13 H    0.970
                            31 C    0.139    29 C    0.105
    13   1 H    0.999 --    12 C    0.970
    14   6 C    3.994 --    16 C    0.987    31 C    0.980    12 C    0.972
                            15 H    0.971
    15   1 H    0.998 --    14 C    0.971
    16   6 C    3.976 --    26 C    1.840    17 B    0.999    14 C    0.987
    17   5 B    3.376 --    18 O    1.130    25 O    1.130    16 C    0.999
    18   8 O    2.235 --    17 B    1.130    19 C    0.953
    19   6 C    3.943 --    20 C    0.997    21 C    0.991    18 O    0.953
                            22 C    0.936
    20   6 C    3.994 --    19 C    0.997    47 H    0.984    46 H    0.983
                            48 H    0.982
    21   6 C    3.994 --    19 C    0.991    51 H    0.984    50 H    0.984
                            49 H    0.983
    22   6 C    3.943 --    24 C    0.996    23 C    0.990    25 O    0.953
                            19 C    0.936
    23   6 C    3.995 --    22 C    0.990    52 H    0.984    54 H    0.984
                            53 H    0.983
    24   6 C    3.994 --    22 C    0.996    55 H    0.985    57 H    0.983
                            56 H    0.982
    25   8 O    2.234 --    17 B    1.130    22 C    0.953
    26   6 C    3.988 --    16 C    1.840    27 C    1.036    58 H    0.966
    27   6 C    3.982 --    26 C    1.036    28 H    0.968    29 C    0.962
                            10 C    0.912
    28   1 H    0.998 --    27 C    0.968
    29   6 C    3.939 --    30 C    1.267    59 H    0.974    27 C    0.962
                            10 C    0.519    12 C    0.105
    30   6 C    3.990 --    31 C    1.672    29 C    1.267    60 H    0.963
    31   6 C    3.969 --    30 C    1.672    14 C    0.980    32 H    0.971
                            12 C    0.139    10 C    0.115
    32   1 H    0.999 --    31 C    0.971
    33   1 H    0.997 --     1 C    0.983
    34   1 H    0.998 --     1 C    0.985
    35   1 H    0.997 --     1 C    0.982
    36   1 H    0.997 --     4 C    0.983
    37   1 H    0.998 --     4 C    0.984
    38   1 H    0.998 --     4 C    0.984
    39   1 H    0.998 --     6 C    0.984
    40   1 H    0.997 --     6 C    0.982
    41   1 H    0.997 --     6 C    0.983
    42   1 H    0.998 --     7 C    0.984
    43   1 H    0.997 --     7 C    0.983
    44   1 H    0.998 --     7 C    0.984
    45   1 H    0.999 --    11 C    0.961
    46   1 H    0.997 --    20 C    0.983
    47   1 H    0.998 --    20 C    0.984
    48   1 H    0.997 --    20 C    0.982
    49   1 H    0.997 --    21 C    0.983
    50   1 H    0.998 --    21 C    0.984
    51   1 H    0.998 --    21 C    0.984
    52   1 H    0.998 --    23 C    0.984
    53   1 H    0.997 --    23 C    0.983
    54   1 H    0.998 --    23 C    0.984
    55   1 H    0.998 --    24 C    0.985
    56   1 H    0.997 --    24 C    0.982
    57   1 H    0.997 --    24 C    0.983
    58   1 H    0.998 --    26 C    0.966
    59   1 H    0.998 --    29 C    0.974
    60   1 H    0.999 --    30 C    0.963
 ---------------------------------------------------------------------------

molecular dipole:
                 x           y           z       tot (Debye)
 q only:       -0.326      -0.397      -0.012
   full:       -0.225      -0.470      -0.133       1.368

           -------------------------------------------------
          | TOTAL ENERGY              -82.297630669606 Eh   |
          | GRADIENT NORM               0.000548285525 Eh/α |
          | HOMO-LUMO GAP               2.704362221784 eV   |
           -------------------------------------------------

 * finished run on 2022/07/09 at 18:33:33.585
