   * xtb version 6.5.0 (homebrew) compiled by 'nhattrup@GPGGRP-SHANNON.CHEME.CMU.EDU' on
          program call               : /opt/homebrew/bin/xtb bvl_bpin2_scan_1-1_xtb.xyz --chrg 0 --uhf 0 --opt --input xcontrol_bvl_bpin2_scan_1-1_xtb

   ID    Z sym.   atoms
    1    6 C      1, 2, 4-7, 10-12, 14, 16, 19-24, 26, 27, 29-31
    2    8 O      3, 8, 18, 25
    3    5 B      9, 17
    4    1 H      13, 15, 28, 32-60
constraining bond 12 31 to    1.6111000 Å, actual value:    1.5013715 Å
constraining bond 10 29 to    2.3889000 Å, actual value:    2.4997804 Å

          :  Hamiltonian                  GFN2-xTB          :
 * total energy  :   -82.1483079 Eh     change       -0.1270294E-08 Eh
 * total energy  :   -82.2662814 Eh     change       -0.1179734E+00 Eh
 * total energy  :   -82.3165752 Eh     change       -0.5029382E-01 Eh
 * total energy  :   -82.3172511 Eh     change       -0.6759382E-03 Eh
 * total energy  :   -82.3178912 Eh     change       -0.6401155E-03 Eh
 * total energy  :   -82.3163725 Eh     change        0.1518727E-02 Eh
 * total energy  :   -82.3181902 Eh     change       -0.1817673E-02 Eh
 * total energy  :   -82.3183568 Eh     change       -0.1666347E-03 Eh
 * total energy  :   -82.3186280 Eh     change       -0.2711821E-03 Eh
 * total energy  :   -82.3187900 Eh     change       -0.1619608E-03 Eh
 * total energy  :   -82.3196425 Eh     change       -0.1095431E-04 Eh
 * total energy  :   -82.3196550 Eh     change       -0.1248652E-04 Eh
 * total energy  :   -82.3196669 Eh     change       -0.1195758E-04 Eh
 * total energy  :   -82.3196796 Eh     change       -0.1265751E-04 Eh
 * total energy  :   -82.3196927 Eh     change       -0.1311282E-04 Eh
 * total energy  :   -82.3197050 Eh     change       -0.1236583E-04 Eh
 * total energy  :   -82.3197090 Eh     change       -0.3923097E-05 Eh
 * total energy  :   -82.3197142 Eh     change       -0.5253805E-05 Eh
 * total energy  :   -82.3197165 Eh     change       -0.2311841E-05 Eh
   *** GEOMETRY OPTIMIZATION CONVERGED AFTER 46 ITERATIONS ***

 final structure:
================
60
 xtb: 6.5.0 (homebrew)
C            3.28806003101870      -38.06160239329459       16.15630934784137
C            3.60124818151743      -38.26697020199417       17.63681362710199
O            3.21607427165910      -37.10645321416090       18.37068894415768
C            2.75695750300466      -39.43103264707398       18.17131857644720
C            5.12887929456199      -38.41267703692659       17.97745426343223
C            5.59951570378463      -39.84392998348321       18.22675941718133
C            6.03887762908204      -37.76081703741986       16.92845477336753
O            5.26742871995773      -37.65100035204127       19.17631170299304
B            4.17215166129626      -36.84213470583730       19.31346784961095
C            4.02705450980393      -35.75135814341815       20.41433644380096
C            5.05197213576130      -35.50742272749386       21.24982122011056
C            5.12895392291166      -34.52021411168270       22.30819148167179
H            6.07230495593763      -34.49782870651007       22.83743574466289
C            3.93382501982261      -34.02825181914504       23.10043230663142
H            4.16365609740308      -33.76900037524690       24.12807151788056
C            2.59958547438936      -34.65566163526951       22.98718227241891
B            1.80399854226617      -34.85370617662642       24.31730935345151
O            2.28025435374167      -34.48374827431810       25.54542875852153
C            1.39053510213961      -34.97171120601935       26.54899512963742
C            1.21713203718049      -33.91295080938357       27.63518574256949
C            2.04970617486621      -36.21469527689334       27.15979808104673
C            0.08828971273829      -35.30791639024352       25.73547879569475
C           -0.93458249742947      -34.16507272027510       25.74823347728976
C           -0.60768623861541      -36.60522292715167       26.14120778912879
O            0.56535771351935      -35.42369605981524       24.39505663103277
C            2.07964248455704      -35.06941892457857       21.82628166959752
C            2.72811650693101      -34.97802352959713       20.47858623737189
H            2.05062022449786      -35.39260096163503       19.73030039075140
C            3.09086764623219      -33.57683259710993       20.09054096500021
C            3.85802279750664      -32.75793594142079       20.80701122941685
C            4.48826189691752      -33.06312430041985       22.08247036939067
H            5.09388174833559      -32.26361492377841       22.48866244800206
H            2.21057470121218      -37.98908733174611       16.03133711970385
H            3.65359288316729      -38.90349674346394       15.57461225937449
H            3.73200720347481      -37.14387584803472       15.78465185293276
H            1.70598879528078      -39.17960250650799       18.04824754604411
H            2.94525986161343      -39.57491954788628       19.23223737967008
H            2.96655763333016      -40.34945773699518       17.63128196171042
H            5.41902744252033      -40.45774719938674       17.34841070178354
H            5.09545340908163      -40.27843549500784       19.08385027831322
H            6.66650265968644      -39.83194802564170       18.43481252157301
H            6.01798938926190      -38.31118403928977       15.99264961618496
H            7.05639469621614      -37.75277129544993       17.31240279576988
H            5.73720666411445      -36.73039298881675       16.75806307167768
H            5.95262435434642      -36.09191592728075       21.10501058741987
H            2.16765109584212      -33.77080646505149       28.14334318134683
H            0.47585088308198      -34.23717182432564       28.36058235110827
H            0.91719052333250      -32.96059030247614       27.21068219211715
H            3.02158991991569      -35.93013457364619       27.55662239618387
H            2.20837560098610      -36.96988244825602       26.39422688302506
H            1.44588028609066      -36.62500292777422       27.96351369051758
H           -1.37389158169415      -34.04203332745397       26.73359465706726
H           -1.72201753725288      -34.39937583559167       25.03581049708047
H           -0.46459926791819      -33.23640719917849       25.43463272669771
H           -0.89957163326672      -36.56429243335386       27.18713168670178
H            0.03542428310399      -37.46356177100339       25.97650798491031
H           -1.49903372181885      -36.73103966256042       25.53161748601932
H            1.09920510408308      -35.52484973776749       21.85390905198726
H            2.71594093315983      -33.23469465465844       19.13527968356803
H            4.08759210176855      -31.77565604113287       20.41120128228078

          :  Hamiltonian                  GFN2-xTB          :
         :: total energy             -82.319716534048 Eh    ::
         :: gradient norm              0.000776155250 Eh/a0 ::
         :: HOMO-LUMO gap              3.424762630315 eV    ::
         :: SCC energy               -83.398921257228 Eh    ::
         :: -> dispersion             -0.061251799625 Eh    ::
         :: repulsion energy           1.078347385969 Eh    ::

    * Orbital Energies and Occupations

         #    Occupation            Energy/Eh            Energy/eV
      -------------------------------------------------------------
         1        2.0000           -0.6881278             -18.7249
       ...           ...                  ...                  ...
        63        2.0000           -0.4369704             -11.8906
        64        2.0000           -0.4348183             -11.8320
        65        2.0000           -0.4265081             -11.6059
        66        2.0000           -0.4195895             -11.4176
        67        2.0000           -0.4189343             -11.3998
        68        2.0000           -0.4122740             -11.2185
        69        2.0000           -0.4062953             -11.0559
        70        2.0000           -0.3980415             -10.8313
        71        2.0000           -0.3961558             -10.7799
        72        2.0000           -0.3953748             -10.7587
        73        2.0000           -0.3884162             -10.5693
        74        2.0000           -0.3527019              -9.5975
        75        2.0000           -0.3489896              -9.4965 (HOMO)
        76                         -0.2231319              -6.0717 (LUMO)
        77                         -0.2145939              -5.8394
        78                         -0.1898677              -5.1666
        79                         -0.1023430              -2.7849
        80                         -0.0938770              -2.5545
        81                         -0.0067697              -0.1842
        82                          0.0082822               0.2254
        83                          0.0117182               0.3189
        84                          0.0286309               0.7791
        85                          0.0306026               0.8327
        86                          0.0569726               1.5503
       ...                                ...                  ...
       144                          0.6788582              18.4727
      -------------------------------------------------------------
                  HL-Gap            0.1258577 Eh            3.4248 eV

     #   Z          covCN         q      C6AA      α(0)
     1   6 C        3.755    -0.117    22.794     6.807
     2   6 C        3.859     0.129    18.453     6.109
     3   8 O        1.638    -0.372    20.317     6.084
     4   6 C        3.755    -0.116    22.771     6.804
     5   6 C        3.859     0.129    18.450     6.109
     6   6 C        3.755    -0.117    22.799     6.808
     7   6 C        3.755    -0.116    22.774     6.805
     8   8 O        1.638    -0.374    20.366     6.092
     9   5 B        2.660     0.431    15.565     6.641
    10   6 C        2.884    -0.085    30.130     8.999
    11   6 C        2.895    -0.031    28.763     8.793
    12   6 C        3.847    -0.017    20.846     6.494
    13   1 H        0.925     0.031     2.569     2.507
    14   6 C        3.863    -0.014    20.776     6.482
    15   1 H        0.925     0.043     2.405     2.425
    16   6 C        2.863    -0.086    30.142     8.999
    17   5 B        2.662     0.432    15.551     6.637
    18   8 O        1.638    -0.374    20.354     6.090
    19   6 C        3.860     0.129    18.453     6.109
    20   6 C        3.755    -0.117    22.801     6.809
    21   6 C        3.755    -0.116    22.780     6.805
    22   6 C        3.860     0.129    18.454     6.109
    23   6 C        3.755    -0.116    22.786     6.806
    24   6 C        3.755    -0.118    22.807     6.809
    25   8 O        1.638    -0.370    20.288     6.080
    26   6 C        2.901    -0.027    28.670     8.779
    27   6 C        3.864    -0.016    20.812     6.487
    28   1 H        0.924     0.045     2.386     2.416
    29   6 C        2.911    -0.034    28.842     8.806
    30   6 C        2.889    -0.039    28.959     8.823
    31   6 C        3.849    -0.015    20.811     6.489
    32   1 H        0.925     0.031     2.576     2.510
    33   1 H        0.925     0.054     2.270     2.356
    34   1 H        0.925     0.039     2.462     2.454
    35   1 H        0.925     0.052     2.301     2.372
    36   1 H        0.925     0.052     2.296     2.369
    37   1 H        0.925     0.043     2.405     2.425
    38   1 H        0.925     0.042     2.426     2.436
    39   1 H        0.925     0.040     2.455     2.450
    40   1 H        0.925     0.052     2.298     2.371
    41   1 H        0.925     0.054     2.272     2.357
    42   1 H        0.925     0.042     2.419     2.432
    43   1 H        0.925     0.052     2.300     2.371
    44   1 H        0.925     0.043     2.404     2.425
    45   1 H        0.925     0.035     2.510     2.478
    46   1 H        0.925     0.054     2.268     2.355
    47   1 H        0.925     0.040     2.450     2.448
    48   1 H        0.925     0.052     2.293     2.368
    49   1 H        0.925     0.052     2.295     2.369
    50   1 H        0.925     0.044     2.400     2.423
    51   1 H        0.925     0.043     2.414     2.430
    52   1 H        0.925     0.043     2.411     2.428
    53   1 H        0.925     0.053     2.285     2.364
    54   1 H        0.925     0.044     2.398     2.422
    55   1 H        0.925     0.040     2.448     2.447
    56   1 H        0.925     0.052     2.294     2.369
    57   1 H        0.925     0.055     2.261     2.351
    58   1 H        0.925     0.036     2.500     2.472
    59   1 H        0.925     0.025     2.655     2.548
    60   1 H        0.925     0.024     2.678     2.559

Wiberg/Mayer (AO) data.
largest (>0.10) Wiberg bond orders for each atom

     #   Z sym  total        # sym  WBO       # sym  WBO       # sym  WBO
 ---------------------------------------------------------------------------
     1   6 C    3.994 --     2 C    0.996    34 H    0.985    33 H    0.983
                            35 H    0.982
     2   6 C    3.944 --     1 C    0.996     4 C    0.990     3 O    0.954
                             5 C    0.936
     3   8 O    2.231 --     9 B    1.125     2 C    0.954
     4   6 C    3.994 --     2 C    0.990    38 H    0.985    37 H    0.984
                            36 H    0.983
     5   6 C    3.943 --     6 C    0.996     7 C    0.990     8 O    0.953
                             2 C    0.936
     6   6 C    3.994 --     5 C    0.996    39 H    0.985    41 H    0.983
                            40 H    0.982
     7   6 C    3.995 --     5 C    0.990    42 H    0.984    44 H    0.984
                            43 H    0.983
     8   8 O    2.228 --     9 B    1.124     5 C    0.953
     9   5 B    3.377 --     3 O    1.125     8 O    1.124    10 C    1.007
    10   6 C    3.975 --    11 C    1.764     9 B    1.007    27 C    0.961
    11   6 C    3.989 --    10 C    1.764    12 C    1.120    45 H    0.964
    12   6 C    3.944 --    11 C    1.120    13 H    0.973    14 C    0.903
                            31 C    0.816
    13   1 H    0.999 --    12 C    0.973
    14   6 C    3.956 --    16 C    1.045    15 H    0.968    31 C    0.921
                            12 C    0.903
    15   1 H    0.998 --    14 C    0.968
    16   6 C    3.978 --    26 C    1.817    14 C    1.045    17 B    0.996
    17   5 B    3.375 --    25 O    1.134    18 O    1.127    16 C    0.996
    18   8 O    2.232 --    17 B    1.127    19 C    0.952
    19   6 C    3.943 --    20 C    0.997    21 C    0.991    18 O    0.952
                            22 C    0.937
    20   6 C    3.994 --    19 C    0.997    47 H    0.984    46 H    0.983
                            48 H    0.982
    21   6 C    3.994 --    19 C    0.991    51 H    0.984    50 H    0.984
                            49 H    0.983
    22   6 C    3.942 --    24 C    0.996    23 C    0.991    25 O    0.952
                            19 C    0.937
    23   6 C    3.995 --    22 C    0.991    52 H    0.984    54 H    0.984
                            53 H    0.983
    24   6 C    3.994 --    22 C    0.996    55 H    0.984    57 H    0.983
                            56 H    0.982
    25   8 O    2.237 --    17 B    1.134    22 C    0.952
    26   6 C    3.986 --    16 C    1.817    27 C    0.997    58 H    0.968
    27   6 C    3.995 --    26 C    0.997    29 C    0.982    28 H    0.971
                            10 C    0.961
    28   1 H    0.998 --    27 C    0.971
    29   6 C    3.988 --    30 C    1.842    27 C    0.982    59 H    0.969
    30   6 C    3.990 --    29 C    1.842    31 C    1.099    60 H    0.966
    31   6 C    3.940 --    30 C    1.099    32 H    0.974    14 C    0.921
                            12 C    0.816
    32   1 H    0.999 --    31 C    0.974
    33   1 H    0.997 --     1 C    0.983
    34   1 H    0.998 --     1 C    0.985
    35   1 H    0.997 --     1 C    0.982
    36   1 H    0.997 --     4 C    0.983
    37   1 H    0.998 --     4 C    0.984
    38   1 H    0.998 --     4 C    0.985
    39   1 H    0.998 --     6 C    0.985
    40   1 H    0.997 --     6 C    0.982
    41   1 H    0.997 --     6 C    0.983
    42   1 H    0.998 --     7 C    0.984
    43   1 H    0.997 --     7 C    0.983
    44   1 H    0.998 --     7 C    0.984
    45   1 H    0.999 --    11 C    0.964
    46   1 H    0.997 --    20 C    0.983
    47   1 H    0.998 --    20 C    0.984
    48   1 H    0.997 --    20 C    0.982
    49   1 H    0.997 --    21 C    0.983
    50   1 H    0.998 --    21 C    0.984
    51   1 H    0.998 --    21 C    0.984
    52   1 H    0.998 --    23 C    0.984
    53   1 H    0.997 --    23 C    0.983
    54   1 H    0.998 --    23 C    0.984
    55   1 H    0.998 --    24 C    0.984
    56   1 H    0.997 --    24 C    0.982
    57   1 H    0.997 --    24 C    0.983
    58   1 H    0.999 --    26 C    0.968
    59   1 H    0.999 --    29 C    0.969
    60   1 H    0.999 --    30 C    0.966
 ---------------------------------------------------------------------------

molecular dipole:
                 x           y           z       tot (Debye)
 q only:       -0.238      -0.506       0.256
   full:       -0.195      -0.613       0.277       1.780

           -------------------------------------------------
          | TOTAL ENERGY              -82.319716534048 Eh   |
          | GRADIENT NORM               0.000776155250 Eh/α |
          | HOMO-LUMO GAP               3.424762630315 eV   |
           -------------------------------------------------

 * finished run on 2022/07/09 at 18:32:56.627
