   * xtb version 6.5.0 (homebrew) compiled by 'nhattrup@GPGGRP-SHANNON.CHEME.CMU.EDU' on
          program call               : /opt/homebrew/bin/xtb bvl_bpin2_scan_5-9_xtb.xyz --chrg 0 --uhf 0 --opt --input xcontrol_bvl_bpin2_scan_5-9_xtb

   ID    Z sym.   atoms
    1    6 C      1, 2, 4-7, 10-12, 14, 16, 19-24, 26, 27, 29-31
    2    8 O      3, 8, 18, 25
    3    5 B      9, 17
    4    1 H      13, 15, 28, 32-60
constraining bond 12 31 to    2.0556000 Å, actual value:    1.9478888 Å
constraining bond 10 29 to    1.5000000 Å, actual value:    1.6112273 Å

          :  Hamiltonian                  GFN2-xTB          :
 * total energy  :   -82.1329355 Eh     change       -0.1075335E-08 Eh
 * total energy  :   -82.2585914 Eh     change       -0.1256559E+00 Eh
 * total energy  :   -82.3056566 Eh     change       -0.4706516E-01 Eh
 * total energy  :   -82.3063375 Eh     change       -0.6809151E-03 Eh
 * total energy  :   -82.3067862 Eh     change       -0.4486787E-03 Eh
 * total energy  :   -82.3018916 Eh     change        0.4894510E-02 Eh
 * total energy  :   -82.3071776 Eh     change       -0.5285965E-02 Eh
 * total energy  :   -82.3073300 Eh     change       -0.1524338E-03 Eh
 * total energy  :   -82.3075244 Eh     change       -0.1943964E-03 Eh
 * total energy  :   -82.3076593 Eh     change       -0.1348495E-03 Eh
 * total energy  :   -82.3077031 Eh     change       -0.4379730E-04 Eh
 * total energy  :   -82.3077255 Eh     change       -0.2236654E-04 Eh
 * total energy  :   -82.3077420 Eh     change       -0.1659016E-04 Eh
 * total energy  :   -82.3077577 Eh     change       -0.1561260E-04 Eh
 * total energy  :   -82.3077731 Eh     change       -0.1546924E-04 Eh
 * total energy  :   -82.3077814 Eh     change       -0.8249869E-05 Eh
 * total energy  :   -82.3077890 Eh     change       -0.7653931E-05 Eh
 * total energy  :   -82.3077978 Eh     change       -0.8767984E-05 Eh
 * total energy  :   -82.3078026 Eh     change       -0.4763699E-05 Eh
   *** GEOMETRY OPTIMIZATION CONVERGED AFTER 19 ITERATIONS ***

 final structure:
================
60
 xtb: 6.5.0 (homebrew)
C            3.46953755419600      -37.76598943865180       15.90780336293379
C            3.71644937716001      -38.13107217613716       17.36972163499325
O            3.25534631814255      -37.06699727580723       18.20408527380054
C            2.88729562101361      -39.37131345833268       17.72494012346882
C            5.22933733976804      -38.26858821499400       17.77580758906461
C            5.73515138184499      -39.70286304795343       17.90879979335739
C            6.16898344818846      -37.48680779396107       16.84967233769715
O            5.28126662699871      -37.62633176837189       19.05215003335137
B            4.15754623264053      -36.87170145066121       19.21168295920290
C            3.91202581753351      -35.86970202214649       20.39894955918171
C            4.93885453321690      -35.86443514513783       21.44346614187936
C            4.95854122300251      -35.09463951564989       22.54109173671031
H            5.86247311272930      -35.11244093835668       23.14166064367099
C            3.85070219941910      -34.25886715176595       23.06529111293464
H            4.08297973737689      -33.86515154116130       24.05408159617368
C            2.47923089101723      -34.87625986148272       23.11097430048331
B            1.73285427899511      -34.88710823966781       24.47710569590319
O            2.23426792366555      -34.37440846854960       25.64371626627891
C            1.36293040482873      -34.73457237715544       26.71470938662944
C            1.21302972175027      -33.55612702532444       27.67430120468278
C            2.02724235518458      -35.90264740421791       27.45520638610277
C            0.04240743887960      -35.15612467193387       25.97347141304557
C           -0.97598428773382      -34.01334791586957       25.86976560163218
C           -0.65164230769668      -36.39121666993258       26.54391199396517
O            0.49084313520617      -35.43565503527789       24.64909236219798
C            1.90588050472638      -35.44350181086715       22.04461827199367
C            2.44333143037141      -35.56280043620014       20.69296924137219
H            1.77022416844700      -36.05539705425284       20.00196731060787
C            3.31962727431102      -34.53412067517502       20.04244761786439
C            3.84560958573329      -33.35019321751892       20.70721135569858
C            4.16421201840212      -33.27045614497861       22.00765901428843
H            4.67854988367082      -32.37339007190150       22.33750642136633
H            2.39733294818524      -37.70970686492945       15.73657896894957
H            3.89092632957531      -38.52406992766350       15.25355824828031
H            3.89900451141477      -36.79899559732269       15.66669514074344
H            1.83580128374782      -39.14130423081796       17.56890461616323
H            3.02309536018492      -39.62860069672994       18.77234529635252
H            3.16000387542556      -40.21637240645905       17.09997388357543
H            5.62720436224128      -40.22937854229379       16.96439610864842
H            5.19956013060511      -40.23789149397103       18.68612815227398
H            6.78754924837988      -39.68019760121669       18.18040173148826
H            6.21076451232393      -37.93566304626883       15.86193675985142
H            7.16569526479994      -37.49311096983390       17.28456199673550
H            5.84465481399686      -36.45215230578475       16.77110641177114
H            5.82922027155817      -36.42134600567950       21.18446601895479
H            2.17282657251753      -33.35990953818060       28.14582877495080
H            0.48468539052786      -33.79198854565765       28.44568348890176
H            0.90620344148143      -32.65764039036275       27.14886314281170
H            3.00805265436127      -35.58166359123332       27.79864724440852
H            2.16666789480810      -36.74348433715912       26.78034690099878
H            1.43638326133079      -36.21170718367204       28.31228483552630
H           -1.39693057779037      -33.77228352578766       26.84132813279774
H           -1.77721481604857      -34.32634562900903       25.20423673419796
H           -0.50923418542039      -33.13070543265915       25.43995079325336
H           -0.92239645355082      -36.22594824629107       27.58320536146295
H           -0.01604950133525      -37.26744959178431       26.46840567148594
H           -1.55554139759256      -36.58128625713778       25.97048506451823
H            0.92244731928608      -35.87493710729245       22.18088785500940
H            3.12141588481846      -34.38582643972573       18.98558252169647
H            4.16240665717798      -32.55295647568169       20.04712240165869

          :  Hamiltonian                  GFN2-xTB          :
         :: total energy             -82.307802563077 Eh    ::
         :: gradient norm              0.000965605852 Eh/a0 ::
         :: HOMO-LUMO gap              3.065605912225 eV    ::
         :: SCC energy               -83.396499623645 Eh    ::
         :: -> dispersion             -0.061918696258 Eh    ::
         :: repulsion energy           1.087800067480 Eh    ::

    * Orbital Energies and Occupations

         #    Occupation            Energy/Eh            Energy/eV
      -------------------------------------------------------------
         1        2.0000           -0.6942880             -18.8925
       ...           ...                  ...                  ...
        63        2.0000           -0.4375412             -11.9061
        64        2.0000           -0.4353678             -11.8470
        65        2.0000           -0.4289016             -11.6710
        66        2.0000           -0.4243505             -11.5472
        67        2.0000           -0.4177350             -11.3671
        68        2.0000           -0.4107004             -11.1757
        69        2.0000           -0.4049630             -11.0196
        70        2.0000           -0.4019571             -10.9378
        71        2.0000           -0.3983416             -10.8394
        72        2.0000           -0.3943113             -10.7298
        73        2.0000           -0.3795608             -10.3284
        74        2.0000           -0.3658816              -9.9561
        75        2.0000           -0.3345756              -9.1043 (HOMO)
        76                         -0.2219167              -6.0387 (LUMO)
        77                         -0.2004306              -5.4540
        78                         -0.1641961              -4.4680
        79                         -0.1409646              -3.8358
        80                         -0.0943639              -2.5678
        81                         -0.0000802              -0.0022
        82                          0.0126126               0.3432
        83                          0.0194737               0.5299
        84                          0.0268693               0.7312
        85                          0.0315758               0.8592
        86                          0.0526225               1.4319
       ...                                ...                  ...
       144                          0.6894999              18.7622
      -------------------------------------------------------------
                  HL-Gap            0.1126589 Eh            3.0656 eV

     #   Z          covCN         q      C6AA      α(0)
     1   6 C        3.755    -0.118    22.806     6.809
     2   6 C        3.858     0.130    18.446     6.108
     3   8 O        1.638    -0.376    20.401     6.097
     4   6 C        3.755    -0.117    22.791     6.807
     5   6 C        3.860     0.129    18.453     6.109
     6   6 C        3.755    -0.118    22.818     6.811
     7   6 C        3.755    -0.117    22.788     6.807
     8   8 O        1.638    -0.370    20.277     6.078
     9   5 B        2.657     0.441    15.463     6.622
    10   6 C        3.836    -0.055    21.537     6.602
    11   6 C        2.893    -0.056    29.388     8.888
    12   6 C        3.257    -0.022    27.392     8.462
    13   1 H        0.925     0.024     2.674     2.557
    14   6 C        3.867    -0.016    20.812     6.487
    15   1 H        0.925     0.043     2.407     2.426
    16   6 C        2.865    -0.088    30.204     9.009
    17   5 B        2.661     0.431    15.566     6.641
    18   8 O        1.638    -0.373    20.340     6.088
    19   6 C        3.859     0.129    18.452     6.109
    20   6 C        3.755    -0.117    22.791     6.807
    21   6 C        3.755    -0.116    22.769     6.804
    22   6 C        3.859     0.129    18.450     6.109
    23   6 C        3.755    -0.116    22.777     6.805
    24   6 C        3.755    -0.117    22.798     6.808
    25   8 O        1.638    -0.374    20.358     6.090
    26   6 C        2.896    -0.026    28.655     8.777
    27   6 C        3.861    -0.020    20.898     6.501
    28   1 H        0.925     0.040     2.455     2.450
    29   6 C        3.867    -0.002    20.575     6.450
    30   6 C        2.890    -0.055    29.353     8.883
    31   6 C        3.258    -0.019    27.322     8.449
    32   1 H        0.925     0.024     2.669     2.555
    33   1 H        0.925     0.055     2.253     2.347
    34   1 H        0.925     0.041     2.437     2.441
    35   1 H        0.925     0.052     2.294     2.369
    36   1 H        0.925     0.053     2.281     2.362
    37   1 H        0.925     0.045     2.388     2.417
    38   1 H        0.925     0.044     2.400     2.423
    39   1 H        0.925     0.041     2.431     2.438
    40   1 H        0.925     0.053     2.281     2.362
    41   1 H        0.925     0.056     2.247     2.344
    42   1 H        0.925     0.044     2.396     2.421
    43   1 H        0.925     0.054     2.273     2.358
    44   1 H        0.925     0.044     2.399     2.422
    45   1 H        0.925     0.031     2.565     2.505
    46   1 H        0.925     0.054     2.275     2.359
    47   1 H        0.925     0.039     2.462     2.454
    48   1 H        0.925     0.052     2.300     2.371
    49   1 H        0.925     0.052     2.301     2.372
    50   1 H        0.925     0.043     2.405     2.425
    51   1 H        0.925     0.042     2.428     2.436
    52   1 H        0.925     0.042     2.424     2.435
    53   1 H        0.925     0.052     2.299     2.371
    54   1 H        0.925     0.044     2.402     2.424
    55   1 H        0.925     0.039     2.461     2.453
    56   1 H        0.925     0.052     2.300     2.372
    57   1 H        0.925     0.054     2.274     2.358
    58   1 H        0.925     0.037     2.486     2.466
    59   1 H        0.925     0.032     2.560     2.502
    60   1 H        0.925     0.021     2.718     2.578

Wiberg/Mayer (AO) data.
largest (>0.10) Wiberg bond orders for each atom

     #   Z sym  total        # sym  WBO       # sym  WBO       # sym  WBO
 ---------------------------------------------------------------------------
     1   6 C    3.994 --     2 C    0.997    34 H    0.984    33 H    0.982
                            35 H    0.982
     2   6 C    3.941 --     1 C    0.997     4 C    0.991     3 O    0.950
                             5 C    0.937
     3   8 O    2.230 --     9 B    1.132     2 C    0.950
     4   6 C    3.994 --     2 C    0.991    38 H    0.984    37 H    0.984
                            36 H    0.983
     5   6 C    3.940 --     6 C    0.997     7 C    0.991     8 O    0.948
                             2 C    0.937
     6   6 C    3.994 --     5 C    0.997    39 H    0.984    41 H    0.982
                            40 H    0.982
     7   6 C    3.995 --     5 C    0.991    42 H    0.984    44 H    0.984
                            43 H    0.983
     8   8 O    2.238 --     9 B    1.143     5 C    0.948
     9   5 B    3.375 --     8 O    1.143     3 O    1.132    10 C    0.985
    10   6 C    3.934 --    11 C    1.095     9 B    0.985    27 C    0.853
                            29 C    0.830
    11   6 C    3.987 --    12 C    1.771    10 C    1.095    45 H    0.965
    12   6 C    3.983 --    11 C    1.771    13 H    0.968    14 C    0.964
                            31 C    0.146
    13   1 H    0.999 --    12 C    0.968
    14   6 C    3.987 --    16 C    0.986    31 C    0.970    15 H    0.969
                            12 C    0.964
    15   1 H    0.998 --    14 C    0.969
    16   6 C    3.976 --    26 C    1.806    17 B    1.007    14 C    0.986
    17   5 B    3.376 --    25 O    1.124    18 O    1.123    16 C    1.007
    18   8 O    2.229 --    17 B    1.123    19 C    0.954
    19   6 C    3.944 --    20 C    0.997    21 C    0.990    18 O    0.954
                            22 C    0.936
    20   6 C    3.994 --    19 C    0.997    47 H    0.985    46 H    0.983
                            48 H    0.982
    21   6 C    3.994 --    19 C    0.990    51 H    0.985    50 H    0.984
                            49 H    0.983
    22   6 C    3.943 --    24 C    0.996    23 C    0.990    25 O    0.955
                            19 C    0.936
    23   6 C    3.995 --    22 C    0.990    52 H    0.985    54 H    0.984
                            53 H    0.983
    24   6 C    3.994 --    22 C    0.996    55 H    0.985    57 H    0.983
                            56 H    0.982
    25   8 O    2.229 --    17 B    1.124    22 C    0.955
    26   6 C    3.989 --    16 C    1.806    27 C    1.075    58 H    0.964
    27   6 C    3.940 --    26 C    1.075    28 H    0.969    29 C    0.907
                            10 C    0.853
    28   1 H    0.998 --    27 C    0.969
    29   6 C    3.952 --    30 C    1.104    59 H    0.969    27 C    0.907
                            10 C    0.830
    30   6 C    3.984 --    31 C    1.761    29 C    1.104    60 H    0.967
    31   6 C    3.980 --    30 C    1.761    14 C    0.970    32 H    0.969
                            12 C    0.146
    32   1 H    0.999 --    31 C    0.969
    33   1 H    0.997 --     1 C    0.982
    34   1 H    0.998 --     1 C    0.984
    35   1 H    0.997 --     1 C    0.982
    36   1 H    0.997 --     4 C    0.983
    37   1 H    0.998 --     4 C    0.984
    38   1 H    0.998 --     4 C    0.984
    39   1 H    0.998 --     6 C    0.984
    40   1 H    0.997 --     6 C    0.982
    41   1 H    0.997 --     6 C    0.982
    42   1 H    0.998 --     7 C    0.984
    43   1 H    0.997 --     7 C    0.983
    44   1 H    0.998 --     7 C    0.984
    45   1 H    0.999 --    11 C    0.965
    46   1 H    0.997 --    20 C    0.983
    47   1 H    0.998 --    20 C    0.985
    48   1 H    0.997 --    20 C    0.982
    49   1 H    0.997 --    21 C    0.983
    50   1 H    0.998 --    21 C    0.984
    51   1 H    0.998 --    21 C    0.985
    52   1 H    0.998 --    23 C    0.985
    53   1 H    0.997 --    23 C    0.983
    54   1 H    0.998 --    23 C    0.984
    55   1 H    0.998 --    24 C    0.985
    56   1 H    0.997 --    24 C    0.982
    57   1 H    0.997 --    24 C    0.983
    58   1 H    0.998 --    26 C    0.964
    59   1 H    0.999 --    29 C    0.969
    60   1 H    0.999 --    30 C    0.967
 ---------------------------------------------------------------------------

molecular dipole:
                 x           y           z       tot (Debye)
 q only:       -0.198      -0.602      -0.212
   full:       -0.173      -0.684      -0.251       1.903

           -------------------------------------------------
          | TOTAL ENERGY              -82.307802563077 Eh   |
          | GRADIENT NORM               0.000965605852 Eh/α |
          | HOMO-LUMO GAP               3.065605912225 eV   |
           -------------------------------------------------

 * finished run on 2022/07/09 at 18:33:40.237
