   * xtb version 6.5.0 (homebrew) compiled by 'nhattrup@GPGGRP-SHANNON.CHEME.CMU.EDU' on
          program call               : /opt/homebrew/bin/xtb bvl_bpin2_scan_9-8_xtb.xyz --chrg 0 --uhf 0 --opt --input xcontrol_bvl_bpin2_scan_9-8_xtb

   ID    Z sym.   atoms
    1    6 C      1, 2, 4-7, 10-12, 14, 16, 19-24, 26, 27, 29-31
    2    8 O      3, 8, 18, 25
    3    5 B      9, 17
    4    1 H      13, 15, 28, 32-60
constraining bond 12 31 to    2.5000000 Å, actual value:    2.3891171 Å
constraining bond 10 29 to    1.6111000 Å, actual value:    1.7169694 Å

          :  Hamiltonian                  GFN2-xTB          :
 * total energy  :   -82.1463448 Eh     change       -0.1419338E-08 Eh
 * total energy  :   -82.2708387 Eh     change       -0.1244940E+00 Eh
 * total energy  :   -82.3180910 Eh     change       -0.4725229E-01 Eh
 * total energy  :   -82.3186600 Eh     change       -0.5689561E-03 Eh
 * total energy  :   -82.3190285 Eh     change       -0.3685333E-03 Eh
 * total energy  :   -82.3165184 Eh     change        0.2510142E-02 Eh
 * total energy  :   -82.3195400 Eh     change       -0.3021651E-02 Eh
 * total energy  :   -82.3197217 Eh     change       -0.1816866E-03 Eh
 * total energy  :   -82.3199493 Eh     change       -0.2276407E-03 Eh
 * total energy  :   -82.3203821 Eh     change       -0.4327972E-03 Eh
 * total energy  :   -82.3205735 Eh     change       -0.1132827E-03 Eh
 * total energy  :   -82.3206273 Eh     change       -0.5378122E-04 Eh
 * total energy  :   -82.3206611 Eh     change       -0.3383779E-04 Eh
 * total energy  :   -82.3206841 Eh     change       -0.2296319E-04 Eh
 * total energy  :   -82.3207027 Eh     change       -0.1858853E-04 Eh
 * total energy  :   -82.3207185 Eh     change       -0.1580035E-04 Eh
 * total energy  :   -82.3207310 Eh     change       -0.1254981E-04 Eh
 * total energy  :   -82.3207405 Eh     change       -0.9439066E-05 Eh
 * total energy  :   -82.3207451 Eh     change       -0.4680646E-05 Eh
   *** GEOMETRY OPTIMIZATION CONVERGED AFTER 20 ITERATIONS ***

 final structure:
================
60
 xtb: 6.5.0 (homebrew)
C            3.60796547373563      -37.65067380738201       15.81826711556698
C            3.78916539927499      -38.09368966438800       17.26815107975452
O            3.30925192547257      -37.06923629440831       18.14084081503392
C            2.93174422016382      -39.33946456319963       17.52385094921670
C            5.28147294997266      -38.27600249095480       17.72591404435865
C            5.77159191614695      -39.72096946292472       17.77434638732408
C            6.26322028415258      -37.43639464811157       16.89909507132231
O            5.28243303605493      -37.72830689806687       19.04574875873651
B            4.16697035454448      -36.95729504868361       19.20176692057870
C            3.89720995670984      -36.03849475742178       20.43773365141739
C            4.86581218429858      -36.11426816580105       21.53598905314204
C            4.87065570014414      -35.41430025440090       22.66574889515568
H            5.65139004778769      -35.59244968014328       23.39144204419655
C            3.86040425447327      -34.34963673518919       23.02417089930977
H            4.11439966730081      -33.93849984884501       24.00328322517639
C            2.48330429964788      -34.97554781593060       23.12973587815122
B            1.74988384227660      -34.93218837161593       24.50463072082140
O            2.27744837046700      -34.37681665952220       25.63835624767623
C            1.41189813568767      -34.66147629911770       26.73610515242458
C            1.30364404139990      -33.43243049732055       27.63588357693640
C            2.05650486282024      -35.80732314252833       27.52685175753341
C            0.07289300411586      -35.08661232507124       26.03153041604345
C           -0.91658405477616      -33.92418906688322       25.87795082136681
C           -0.64747682567152      -36.26779881573234       26.67797951815537
O            0.49960512137919      -35.44641701829694       24.71827375683617
C            1.90091477458026      -35.57319018962644       22.08022922257651
C            2.42240566325756      -35.70991631737138       20.72137656401651
H            1.74087910087618      -36.22191597584172       20.05125886615222
C            3.23047354545300      -34.62671277956888       20.05396226703926
C            3.60043732899389      -33.38430645341287       20.71968221054504
C            3.85317149978982      -33.22614583236516       22.01563396704048
H            4.09893142903023      -32.24258243258443       22.38983387299541
H            2.54481747972234      -37.57664690153722       15.60292895925581
H            4.05318729657071      -38.37770774092072       15.14462811837551
H            4.05425062068182      -36.67655526461283       15.64643222299416
H            1.88961794891839      -39.08597564281381       17.34299685092800
H            3.02624430372473      -39.65552528461159       18.55973708881810
H            3.21651460233798      -40.15312171444843       16.86353147571731
H            5.69707081991413      -40.17769356926840       16.79110899845481
H            5.20178453462275      -40.30494072575407       18.48973471359352
H            6.81265194906267      -39.72832051105348       18.08742555502095
H            6.35191520198340      -37.81730269133627       15.88617813440714
H            7.23822067575165      -37.47407877242863       17.37930324673414
H            5.94167698992079      -36.39807260759638       16.87617073728444
H            5.64366833121414      -36.84855872750743       21.36689492589805
H            2.27433540553759      -33.23688798646399       28.08483723890963
H            0.58018310711604      -33.60989821427405       28.42720765748274
H            1.01217611172767      -32.55444334576129       27.06866909717020
H            3.05140112972210      -35.49660606049351       27.83756468774296
H            2.16113138714042      -36.68619758539215       26.89556766298348
H            1.47189695509541      -36.05393746713943       28.40813071708204
H           -1.31690486609889      -33.62013324671751       26.84051808353179
H           -1.73535678970861      -34.25123610084450       25.24116119405916
H           -0.43346628485039      -33.07872354894099       25.39479878163873
H           -0.89740249170064      -36.03505642094053       27.70965510882459
H           -0.03906610900367      -37.16558840330816       26.64506734505331
H           -1.56536766866088      -36.46284342131071       26.12908172047846
H            0.92252741180481      -36.00952769869111       22.23852888485373
H            3.06062397650318      -34.53597537002025       18.98977272057755
H            3.64337646138978      -32.52015266310183       20.06667434552893

          :  Hamiltonian                  GFN2-xTB          :
         :: total energy             -82.320745138474 Eh    ::
         :: gradient norm              0.000855241313 Eh/a0 ::
         :: HOMO-LUMO gap              3.337806223783 eV    ::
         :: SCC energy               -83.398443471972 Eh    ::
         :: -> dispersion             -0.061940935207 Eh    ::
         :: repulsion energy           1.076943467336 Eh    ::

    * Orbital Energies and Occupations

         #    Occupation            Energy/Eh            Energy/eV
      -------------------------------------------------------------
         1        2.0000           -0.6925188             -18.8444
       ...           ...                  ...                  ...
        63        2.0000           -0.4346905             -11.8285
        64        2.0000           -0.4333264             -11.7914
        65        2.0000           -0.4316586             -11.7460
        66        2.0000           -0.4233331             -11.5195
        67        2.0000           -0.4187303             -11.3942
        68        2.0000           -0.4127034             -11.2302
        69        2.0000           -0.4022028             -10.9445
        70        2.0000           -0.4001933             -10.8898
        71        2.0000           -0.3974546             -10.8153
        72        2.0000           -0.3951179             -10.7517
        73        2.0000           -0.3884882             -10.5713
        74        2.0000           -0.3560827              -9.6895
        75        2.0000           -0.3460815              -9.4174 (HOMO)
        76                         -0.2234193              -6.0795 (LUMO)
        77                         -0.1979971              -5.3878
        78                         -0.1821541              -4.9567
        79                         -0.1467111              -3.9922
        80                         -0.0944214              -2.5693
        81                          0.0028626               0.0779
        82                          0.0058887               0.1602
        83                          0.0110842               0.3016
        84                          0.0252010               0.6858
        85                          0.0304757               0.8293
        86                          0.0529034               1.4396
       ...                                ...                  ...
       144                          0.6693163              18.2130
      -------------------------------------------------------------
                  HL-Gap            0.1226621 Eh            3.3378 eV

     #   Z          covCN         q      C6AA      α(0)
     1   6 C        3.755    -0.117    22.802     6.809
     2   6 C        3.858     0.130    18.441     6.107
     3   8 O        1.638    -0.379    20.455     6.105
     4   6 C        3.755    -0.116    22.783     6.806
     5   6 C        3.861     0.129    18.448     6.108
     6   6 C        3.755    -0.118    22.811     6.810
     7   6 C        3.755    -0.116    22.785     6.806
     8   8 O        1.638    -0.371    20.314     6.084
     9   5 B        2.657     0.440    15.475     6.624
    10   6 C        3.820    -0.065    21.723     6.633
    11   6 C        2.890    -0.041    29.005     8.830
    12   6 C        2.896    -0.038    28.941     8.820
    13   1 H        0.926     0.025     2.662     2.551
    14   6 C        3.864    -0.017    20.842     6.492
    15   1 H        0.924     0.042     2.417     2.431
    16   6 C        2.872    -0.082    30.059     8.987
    17   5 B        2.660     0.432    15.561     6.641
    18   8 O        1.638    -0.370    20.291     6.080
    19   6 C        3.859     0.129    18.454     6.109
    20   6 C        3.755    -0.117    22.793     6.807
    21   6 C        3.755    -0.116    22.771     6.804
    22   6 C        3.859     0.129    18.450     6.109
    23   6 C        3.755    -0.116    22.777     6.805
    24   6 C        3.755    -0.117    22.800     6.808
    25   8 O        1.638    -0.374    20.357     6.090
    26   6 C        2.895    -0.030    28.745     8.790
    27   6 C        3.859    -0.008    20.686     6.468
    28   1 H        0.925     0.040     2.447     2.446
    29   6 C        3.849    -0.014    20.785     6.485
    30   6 C        2.889    -0.036    28.887     8.812
    31   6 C        2.896    -0.035    28.870     8.810
    32   1 H        0.926     0.026     2.647     2.544
    33   1 H        0.925     0.055     2.261     2.351
    34   1 H        0.925     0.040     2.443     2.444
    35   1 H        0.925     0.052     2.295     2.369
    36   1 H        0.925     0.052     2.291     2.367
    37   1 H        0.925     0.044     2.397     2.421
    38   1 H        0.925     0.043     2.406     2.425
    39   1 H        0.925     0.041     2.441     2.443
    40   1 H        0.925     0.053     2.286     2.364
    41   1 H        0.925     0.056     2.252     2.347
    42   1 H        0.925     0.043     2.404     2.425
    43   1 H        0.925     0.053     2.277     2.360
    44   1 H        0.925     0.044     2.401     2.423
    45   1 H        0.925     0.033     2.541     2.493
    46   1 H        0.925     0.054     2.269     2.356
    47   1 H        0.925     0.039     2.460     2.453
    48   1 H        0.925     0.052     2.299     2.371
    49   1 H        0.925     0.052     2.296     2.369
    50   1 H        0.925     0.043     2.404     2.425
    51   1 H        0.925     0.042     2.424     2.435
    52   1 H        0.925     0.042     2.418     2.432
    53   1 H        0.925     0.052     2.298     2.370
    54   1 H        0.925     0.043     2.404     2.425
    55   1 H        0.925     0.040     2.455     2.450
    56   1 H        0.925     0.052     2.298     2.371
    57   1 H        0.925     0.054     2.272     2.357
    58   1 H        0.925     0.036     2.505     2.475
    59   1 H        0.925     0.037     2.493     2.469
    60   1 H        0.925     0.024     2.669     2.555

Wiberg/Mayer (AO) data.
largest (>0.10) Wiberg bond orders for each atom

     #   Z sym  total        # sym  WBO       # sym  WBO       # sym  WBO
 ---------------------------------------------------------------------------
     1   6 C    3.994 --     2 C    0.997    34 H    0.984    33 H    0.982
                            35 H    0.982
     2   6 C    3.942 --     1 C    0.997     4 C    0.991     3 O    0.950
                             5 C    0.937
     3   8 O    2.224 --     9 B    1.125     2 C    0.950
     4   6 C    3.995 --     2 C    0.991    38 H    0.984    37 H    0.984
                            36 H    0.983
     5   6 C    3.941 --     6 C    0.997     7 C    0.991     8 O    0.949
                             2 C    0.937
     6   6 C    3.994 --     5 C    0.997    39 H    0.984    41 H    0.982
                            40 H    0.982
     7   6 C    3.995 --     5 C    0.991    42 H    0.984    44 H    0.984
                            43 H    0.983
     8   8 O    2.233 --     9 B    1.136     5 C    0.949
     9   5 B    3.378 --     8 O    1.136     3 O    1.125    10 C    1.001
    10   6 C    3.923 --    11 C    1.078     9 B    1.001    27 C    0.858
                            29 C    0.812
    11   6 C    3.990 --    12 C    1.865    10 C    1.078    45 H    0.963
    12   6 C    3.989 --    11 C    1.865    14 C    0.984    13 H    0.969
    13   1 H    0.999 --    12 C    0.969
    14   6 C    3.996 --    31 C    0.986    12 C    0.984    15 H    0.973
                            16 C    0.971
    15   1 H    0.998 --    14 C    0.973
    16   6 C    3.975 --    26 C    1.796    17 B    1.003    14 C    0.971
    17   5 B    3.375 --    18 O    1.128    25 O    1.125    16 C    1.003
    18   8 O    2.234 --    17 B    1.128    19 C    0.954
    19   6 C    3.944 --    20 C    0.997    21 C    0.990    18 O    0.954
                            22 C    0.937
    20   6 C    3.994 --    19 C    0.997    47 H    0.985    46 H    0.983
                            48 H    0.982
    21   6 C    3.994 --    19 C    0.990    51 H    0.985    50 H    0.984
                            49 H    0.983
    22   6 C    3.943 --    24 C    0.996    23 C    0.990    25 O    0.954
                            19 C    0.937
    23   6 C    3.995 --    22 C    0.990    52 H    0.984    54 H    0.984
                            53 H    0.983
    24   6 C    3.994 --    22 C    0.996    55 H    0.985    57 H    0.983
                            56 H    0.982
    25   8 O    2.229 --    17 B    1.125    22 C    0.954
    26   6 C    3.988 --    16 C    1.796    27 C    1.084    58 H    0.965
    27   6 C    3.959 --    26 C    1.084    28 H    0.970    29 C    0.916
                            10 C    0.858
    28   1 H    0.998 --    27 C    0.970
    29   6 C    3.944 --    30 C    1.091    59 H    0.973    27 C    0.916
                            10 C    0.812
    30   6 C    3.990 --    31 C    1.856    29 C    1.091    60 H    0.965
    31   6 C    3.987 --    30 C    1.856    14 C    0.986    32 H    0.970
    32   1 H    0.999 --    31 C    0.970
    33   1 H    0.997 --     1 C    0.982
    34   1 H    0.998 --     1 C    0.984
    35   1 H    0.997 --     1 C    0.982
    36   1 H    0.997 --     4 C    0.983
    37   1 H    0.998 --     4 C    0.984
    38   1 H    0.998 --     4 C    0.984
    39   1 H    0.998 --     6 C    0.984
    40   1 H    0.997 --     6 C    0.982
    41   1 H    0.997 --     6 C    0.982
    42   1 H    0.998 --     7 C    0.984
    43   1 H    0.997 --     7 C    0.983
    44   1 H    0.998 --     7 C    0.984
    45   1 H    0.999 --    11 C    0.963
    46   1 H    0.997 --    20 C    0.983
    47   1 H    0.998 --    20 C    0.985
    48   1 H    0.997 --    20 C    0.982
    49   1 H    0.997 --    21 C    0.983
    50   1 H    0.998 --    21 C    0.984
    51   1 H    0.998 --    21 C    0.985
    52   1 H    0.998 --    23 C    0.984
    53   1 H    0.997 --    23 C    0.983
    54   1 H    0.998 --    23 C    0.984
    55   1 H    0.998 --    24 C    0.985
    56   1 H    0.997 --    24 C    0.982
    57   1 H    0.997 --    24 C    0.983
    58   1 H    0.999 --    26 C    0.965
    59   1 H    0.998 --    29 C    0.973
    60   1 H    0.999 --    30 C    0.965
 ---------------------------------------------------------------------------

molecular dipole:
                 x           y           z       tot (Debye)
 q only:       -0.252      -0.472      -0.174
   full:       -0.327      -0.568      -0.211       1.750

           -------------------------------------------------
          | TOTAL ENERGY              -82.320745138474 Eh   |
          | GRADIENT NORM               0.000855241313 Eh/α |
          | HOMO-LUMO GAP               3.337806223783 eV   |
           -------------------------------------------------

 * finished run on 2022/07/09 at 18:33:45.992
