   * xtb version 6.5.0 (homebrew) compiled by 'nhattrup@GPGGRP-SHANNON.CHEME.CMU.EDU' on
          program call               : /opt/homebrew/bin/xtb bvl_bpin2_scan_0-1_xtb.xyz --chrg 0 --uhf 0 --opt --input xcontrol_bvl_bpin2_scan_0-1_xtb

   ID    Z sym.   atoms
    1    6 C      1, 2, 4-7, 10-12, 14, 16, 19-24, 26, 27, 29-31
    2    8 O      3, 8, 18, 25
    3    5 B      9, 17
    4    1 H      13, 15, 28, 32-60
constraining bond 12 31 to    1.5000000 Å, actual value:    1.5013715 Å
constraining bond 10 29 to    2.3889000 Å, actual value:    2.4997804 Å

          :  Hamiltonian                  GFN2-xTB          :
 * total energy  :   -82.2342881 Eh     change       -0.1270323E-08 Eh
 * total energy  :   -82.2875712 Eh     change       -0.5328303E-01 Eh
 * total energy  :   -82.3199945 Eh     change       -0.3242331E-01 Eh
 * total energy  :   -82.3206697 Eh     change       -0.6752373E-03 Eh
 * total energy  :   -82.3210433 Eh     change       -0.3735745E-03 Eh
 * total energy  :   -82.3211306 Eh     change       -0.8732820E-04 Eh
 * total energy  :   -82.3211760 Eh     change       -0.4537908E-04 Eh
 * total energy  :   -82.3212050 Eh     change       -0.2903581E-04 Eh
 * total energy  :   -82.3212223 Eh     change       -0.1723798E-04 Eh
 * total energy  :   -82.3212351 Eh     change       -0.1285963E-04 Eh
 * total energy  :   -82.3214556 Eh     change       -0.1098859E-04 Eh
 * total energy  :   -82.3214620 Eh     change       -0.6423782E-05 Eh
 * total energy  :   -82.3214702 Eh     change       -0.8235761E-05 Eh
 * total energy  :   -82.3214758 Eh     change       -0.5519354E-05 Eh
 * total energy  :   -82.3214828 Eh     change       -0.7056671E-05 Eh
 * total energy  :   -82.3214850 Eh     change       -0.2150626E-05 Eh
 * total energy  :   -82.3214902 Eh     change       -0.5272836E-05 Eh
 * total energy  :   -82.3214928 Eh     change       -0.2557604E-05 Eh
 * total energy  :   -82.3214952 Eh     change       -0.2374832E-05 Eh
   *** GEOMETRY OPTIMIZATION CONVERGED AFTER 31 ITERATIONS ***

 final structure:
================
60
 xtb: 6.5.0 (homebrew)
C            3.29110003435436      -38.09734376414414       16.17975818911524
C            3.59765689809276      -38.27411687464915       17.66545067185070
O            3.21227512775546      -37.09788889141970       18.37398187929805
C            2.74728860507468      -39.42463016359061       18.21906992712027
C            5.12435034374277      -38.41708078428814       18.01459151821931
C            5.58660778436168      -39.84266576219670       18.30874196650438
C            6.04167616154627      -37.80313927283913       16.94926484070045
O            5.26425663187463      -37.62073476785256       19.19041500520099
B            4.16880991528091      -36.80972789738038       19.30824304768663
C            4.02658667398610      -35.68900558117161       20.38195733960145
C            5.05211151553690      -35.43114600421508       21.20817798651215
C            5.12757001119771      -34.41352168110578       22.25293265712391
H            6.07174761357566      -34.42251446014265       22.78682431286997
C            3.92989912658171      -34.00321132211948       23.09081191402115
H            4.16582960564798      -33.75560817025735       24.11860273866018
C            2.60665237344881      -34.64171289329763       22.96651119903973
B            1.81416762918496      -34.86112843754120       24.29606453523532
O            2.30037510125930      -34.52390706637870       25.52986698659231
C            1.40712465667030      -35.02015880462115       26.52636748609877
C            1.25761743394874      -33.98505206251304       27.63878156300213
C            2.04622807564416      -36.28957531903727       27.10367228870894
C            0.09600705199881      -35.31370329463675       25.71123801618003
C           -0.90047764140056      -34.14809272129037       25.74715132249537
C           -0.62741424557962      -36.60200150266116       26.09644097836253
O            0.56760443043493      -35.41509753930686       24.36739294819730
C            2.08374314855882      -35.04625454481161       21.80250382435371
C            2.72350280227494      -34.93184645657268       20.45088503583667
H            2.04773908777915      -35.34435832615289       19.70010908057615
C            3.06286248934481      -33.52106462653684       20.09229339841096
C            3.83069951704123      -32.71138085651292       20.81429078154029
C            4.51066870414756      -33.05724527364517       22.06554064697160
H            5.07866931554700      -32.23191363916552       22.48187650345605
H            2.21438835880342      -38.02282110455890       16.04894392040081
H            3.65526458188858      -38.95234533912727       15.61658149477391
H            3.74035556324043      -37.18909037027632       15.79145414727934
H            1.69768078799129      -39.17364087595082       18.08365229320032
H            2.92796422736905      -39.54649117048727       19.28410711661897
H            2.95820099741120      -40.35486493059863       17.70011101115014
H            5.40874248172189      -40.48134138918056       17.44778384427484
H            5.07562234762150      -40.24973883496880       19.17508532545082
H            6.65237831082077      -39.82920140294792       18.52289014315144
H            6.01695325949120      -38.37927675850778       16.02915656492048
H            7.05873633262741      -37.79416160451544       17.33448607903475
H            5.75036461450093      -36.77507833688413       16.74951837058813
H            5.95000263646863      -36.02242212072883       21.07817306003361
H            2.21255970251092      -33.87322293697266       28.14633011310491
H            0.51303138757436      -34.31291048711874       28.35914649616242
H            0.97411384915330      -33.01704545588305       27.23873584052424
H            3.02664092258317      -36.03354966377505       27.49886274270589
H            2.18358445380313      -37.03014772141766       26.31980912971777
H            1.44042545181531      -36.70595543368432       27.90286056524240
H           -1.33460305604183      -34.03238416052232       26.73572664432174
H           -1.69462230790865      -34.35121894229532       25.03252431271885
H           -0.40940090791079      -33.22525324819678       25.44883910047991
H           -0.91297842652345      -36.57359483138082       27.14456346321745
H           -0.00473483735684      -37.47147226994099       25.91299047207161
H           -1.52441686108442      -36.69645838228578       25.48961671718114
H            1.10729426389604      -35.50961073064212       21.82964340667474
H            2.64491228467006      -33.14848314293629       19.16601032015249
H            4.02173360196866      -31.70834959222870       20.45240671531969

          :  Hamiltonian                  GFN2-xTB          :
         :: total energy             -82.321495174328 Eh    ::
         :: gradient norm              0.000367958547 Eh/a0 ::
         :: HOMO-LUMO gap              3.457233000390 eV    ::
         :: SCC energy               -83.406921441979 Eh    ::
         :: -> dispersion             -0.061271541217 Eh    ::
         :: repulsion energy           1.084611274901 Eh    ::

    * Orbital Energies and Occupations

         #    Occupation            Energy/Eh            Energy/eV
      -------------------------------------------------------------
         1        2.0000           -0.6879698             -18.7206
       ...           ...                  ...                  ...
        63        2.0000           -0.4371252             -11.8948
        64        2.0000           -0.4334063             -11.7936
        65        2.0000           -0.4261897             -11.5972
        66        2.0000           -0.4194444             -11.4137
        67        2.0000           -0.4189486             -11.4002
        68        2.0000           -0.4122920             -11.2190
        69        2.0000           -0.4059249             -11.0458
        70        2.0000           -0.3985116             -10.8441
        71        2.0000           -0.3967588             -10.7964
        72        2.0000           -0.3959700             -10.7749
        73        2.0000           -0.3877390             -10.5509
        74        2.0000           -0.3546657              -9.6509
        75        2.0000           -0.3487681              -9.4905 (HOMO)
        76                         -0.2217171              -6.0332 (LUMO)
        77                         -0.2136672              -5.8142
        78                         -0.1898915              -5.1672
        79                         -0.1016652              -2.7664
        80                         -0.0936211              -2.5476
        81                          0.0082572               0.2247
        82                          0.0107940               0.2937
        83                          0.0162214               0.4414
        84                          0.0289015               0.7864
        85                          0.0299369               0.8146
        86                          0.0569671               1.5502
       ...                                ...                  ...
       144                          0.6780576              18.4509
      -------------------------------------------------------------
                  HL-Gap            0.1270510 Eh            3.4572 eV

     #   Z          covCN         q      C6AA      α(0)
     1   6 C        3.755    -0.117    22.795     6.808
     2   6 C        3.859     0.129    18.456     6.110
     3   8 O        1.638    -0.371    20.299     6.082
     4   6 C        3.755    -0.116    22.772     6.804
     5   6 C        3.858     0.129    18.452     6.109
     6   6 C        3.755    -0.117    22.800     6.808
     7   6 C        3.755    -0.116    22.776     6.805
     8   8 O        1.638    -0.374    20.354     6.090
     9   5 B        2.660     0.431    15.567     6.643
    10   6 C        2.885    -0.083    30.082     8.992
    11   6 C        2.896    -0.032    28.792     8.798
    12   6 C        3.861    -0.011    20.738     6.476
    13   1 H        0.925     0.030     2.588     2.516
    14   6 C        3.863    -0.020    20.883     6.499
    15   1 H        0.925     0.041     2.429     2.437
    16   6 C        2.863    -0.085    30.134     8.998
    17   5 B        2.662     0.433    15.544     6.636
    18   8 O        1.638    -0.374    20.358     6.091
    19   6 C        3.860     0.129    18.453     6.109
    20   6 C        3.755    -0.117    22.801     6.809
    21   6 C        3.755    -0.116    22.780     6.805
    22   6 C        3.861     0.129    18.453     6.109
    23   6 C        3.755    -0.116    22.786     6.806
    24   6 C        3.755    -0.118    22.806     6.809
    25   8 O        1.638    -0.371    20.297     6.081
    26   6 C        2.902    -0.029    28.726     8.788
    27   6 C        3.865    -0.015    20.802     6.486
    28   1 H        0.924     0.044     2.392     2.419
    29   6 C        2.911    -0.032    28.808     8.801
    30   6 C        2.890    -0.040    28.994     8.828
    31   6 C        3.863    -0.010    20.715     6.472
    32   1 H        0.925     0.029     2.596     2.520
    33   1 H        0.925     0.054     2.268     2.355
    34   1 H        0.925     0.039     2.459     2.452
    35   1 H        0.925     0.052     2.300     2.372
    36   1 H        0.925     0.052     2.293     2.368
    37   1 H        0.925     0.043     2.404     2.425
    38   1 H        0.925     0.042     2.424     2.435
    39   1 H        0.925     0.040     2.453     2.449
    40   1 H        0.925     0.052     2.299     2.371
    41   1 H        0.925     0.054     2.271     2.356
    42   1 H        0.925     0.042     2.417     2.431
    43   1 H        0.925     0.052     2.297     2.370
    44   1 H        0.925     0.044     2.402     2.424
    45   1 H        0.925     0.035     2.513     2.479
    46   1 H        0.925     0.054     2.268     2.355
    47   1 H        0.925     0.040     2.451     2.448
    48   1 H        0.925     0.052     2.293     2.368
    49   1 H        0.925     0.052     2.295     2.369
    50   1 H        0.925     0.044     2.401     2.423
    51   1 H        0.925     0.043     2.415     2.430
    52   1 H        0.925     0.043     2.411     2.428
    53   1 H        0.925     0.053     2.286     2.364
    54   1 H        0.925     0.044     2.398     2.422
    55   1 H        0.925     0.040     2.448     2.447
    56   1 H        0.925     0.052     2.293     2.368
    57   1 H        0.925     0.055     2.261     2.351
    58   1 H        0.926     0.035     2.510     2.477
    59   1 H        0.925     0.025     2.660     2.550
    60   1 H        0.925     0.023     2.683     2.561

Wiberg/Mayer (AO) data.
largest (>0.10) Wiberg bond orders for each atom

     #   Z sym  total        # sym  WBO       # sym  WBO       # sym  WBO
 ---------------------------------------------------------------------------
     1   6 C    3.994 --     2 C    0.996    34 H    0.985    33 H    0.983
                            35 H    0.982
     2   6 C    3.943 --     1 C    0.996     4 C    0.991     3 O    0.954
                             5 C    0.936
     3   8 O    2.233 --     9 B    1.127     2 C    0.954
     4   6 C    3.994 --     2 C    0.991    38 H    0.985    37 H    0.984
                            36 H    0.983
     5   6 C    3.942 --     6 C    0.996     7 C    0.991     8 O    0.953
                             2 C    0.936
     6   6 C    3.994 --     5 C    0.996    39 H    0.985    41 H    0.983
                            40 H    0.982
     7   6 C    3.995 --     5 C    0.991    42 H    0.984    44 H    0.984
                            43 H    0.983
     8   8 O    2.230 --     9 B    1.126     5 C    0.953
     9   5 B    3.377 --     3 O    1.127     8 O    1.126    10 C    1.003
    10   6 C    3.976 --    11 C    1.788     9 B    1.003    27 C    0.964
    11   6 C    3.989 --    10 C    1.788    12 C    1.091    45 H    0.965
    12   6 C    3.950 --    11 C    1.091    13 H    0.971    14 C    0.887
                            31 C    0.883
    13   1 H    0.999 --    12 C    0.971
    14   6 C    3.943 --    16 C    1.056    15 H    0.969    31 C    0.904
                            12 C    0.887
    15   1 H    0.998 --    14 C    0.969
    16   6 C    3.979 --    26 C    1.809    14 C    1.056    17 B    0.995
    17   5 B    3.374 --    25 O    1.133    18 O    1.127    16 C    0.995
    18   8 O    2.232 --    17 B    1.127    19 C    0.952
    19   6 C    3.943 --    20 C    0.997    21 C    0.991    18 O    0.952
                            22 C    0.937
    20   6 C    3.994 --    19 C    0.997    47 H    0.984    46 H    0.983
                            48 H    0.982
    21   6 C    3.994 --    19 C    0.991    51 H    0.984    50 H    0.984
                            49 H    0.983
    22   6 C    3.942 --    24 C    0.997    23 C    0.991    25 O    0.952
                            19 C    0.937
    23   6 C    3.995 --    22 C    0.991    52 H    0.984    54 H    0.984
                            53 H    0.983
    24   6 C    3.994 --    22 C    0.997    55 H    0.984    57 H    0.983
                            56 H    0.982
    25   8 O    2.236 --    17 B    1.133    22 C    0.952
    26   6 C    3.987 --    16 C    1.809    27 C    0.993    58 H    0.968
    27   6 C    3.995 --    26 C    0.993    29 C    0.984    28 H    0.971
                            10 C    0.964
    28   1 H    0.998 --    27 C    0.971
    29   6 C    3.989 --    30 C    1.864    27 C    0.984    59 H    0.969
    30   6 C    3.990 --    29 C    1.864    31 C    1.073    60 H    0.967
    31   6 C    3.947 --    30 C    1.073    32 H    0.971    14 C    0.904
                            12 C    0.883
    32   1 H    0.999 --    31 C    0.971
    33   1 H    0.997 --     1 C    0.983
    34   1 H    0.998 --     1 C    0.985
    35   1 H    0.997 --     1 C    0.982
    36   1 H    0.997 --     4 C    0.983
    37   1 H    0.998 --     4 C    0.984
    38   1 H    0.998 --     4 C    0.985
    39   1 H    0.998 --     6 C    0.985
    40   1 H    0.997 --     6 C    0.982
    41   1 H    0.997 --     6 C    0.983
    42   1 H    0.998 --     7 C    0.984
    43   1 H    0.997 --     7 C    0.983
    44   1 H    0.998 --     7 C    0.984
    45   1 H    0.999 --    11 C    0.965
    46   1 H    0.997 --    20 C    0.983
    47   1 H    0.998 --    20 C    0.984
    48   1 H    0.997 --    20 C    0.982
    49   1 H    0.997 --    21 C    0.983
    50   1 H    0.998 --    21 C    0.984
    51   1 H    0.998 --    21 C    0.984
    52   1 H    0.998 --    23 C    0.984
    53   1 H    0.997 --    23 C    0.983
    54   1 H    0.998 --    23 C    0.984
    55   1 H    0.998 --    24 C    0.984
    56   1 H    0.997 --    24 C    0.982
    57   1 H    0.997 --    24 C    0.983
    58   1 H    0.999 --    26 C    0.968
    59   1 H    0.999 --    29 C    0.969
    60   1 H    0.999 --    30 C    0.967
 ---------------------------------------------------------------------------

molecular dipole:
                 x           y           z       tot (Debye)
 q only:       -0.223      -0.544       0.228
   full:       -0.203      -0.661       0.268       1.886

           -------------------------------------------------
          | TOTAL ENERGY              -82.321495174328 Eh   |
          | GRADIENT NORM               0.000367958547 Eh/α |
          | HOMO-LUMO GAP               3.457233000390 eV   |
           -------------------------------------------------

 * finished run on 2022/07/09 at 18:32:54.118
