   * xtb version 6.5.0 (homebrew) compiled by 'nhattrup@GPGGRP-SHANNON.CHEME.CMU.EDU' on
          program call               : /opt/homebrew/bin/xtb bvl_bpin2_scan_2-9_xtb.xyz --chrg 0 --uhf 0 --opt --input xcontrol_bvl_bpin2_scan_2-9_xtb

   ID    Z sym.   atoms
    1    6 C      1, 2, 4-7, 10-12, 14, 16, 19-24, 26, 27, 29-31
    2    8 O      3, 8, 18, 25
    3    5 B      9, 17
    4    1 H      13, 15, 28, 32-60
constraining bond 12 31 to    1.7222000 Å, actual value:    1.6140139 Å
constraining bond 10 29 to    1.5000000 Å, actual value:    1.6142500 Å

          :  Hamiltonian                  GFN2-xTB          :
 * total energy  :   -82.1156522 Eh     change       -0.1317048E-08 Eh
 * total energy  :   -82.2423732 Eh     change       -0.1267210E+00 Eh
 * total energy  :   -82.2883371 Eh     change       -0.4596390E-01 Eh
 * total energy  :   -82.2889739 Eh     change       -0.6367963E-03 Eh
 * total energy  :   -82.2891853 Eh     change       -0.2113569E-03 Eh
 * total energy  :   -82.2840076 Eh     change        0.5177640E-02 Eh
 * total energy  :   -82.2894190 Eh     change       -0.5411308E-02 Eh
 * total energy  :   -82.2894601 Eh     change       -0.4116670E-04 Eh
 * total energy  :   -82.2894908 Eh     change       -0.3063771E-04 Eh
 * total energy  :   -82.2895203 Eh     change       -0.2953610E-04 Eh
 * total energy  :   -82.2895293 Eh     change       -0.8962878E-05 Eh
 * total energy  :   -82.2895342 Eh     change       -0.4907747E-05 Eh
 * total energy  :   -82.2895400 Eh     change       -0.5853029E-05 Eh
 * total energy  :   -82.2895448 Eh     change       -0.4798406E-05 Eh
 * total energy  :   -82.2895556 Eh     change       -0.1073515E-04 Eh
 * total energy  :   -82.2895608 Eh     change       -0.5255788E-05 Eh
 * total energy  :   -82.2895677 Eh     change       -0.6880629E-05 Eh
 * total energy  :   -82.2895717 Eh     change       -0.4027483E-05 Eh
   *** GEOMETRY OPTIMIZATION CONVERGED AFTER 18 ITERATIONS ***

 final structure:
================
60
 xtb: 6.5.0 (homebrew)
C            3.48836968999001      -37.73621744950147       15.89070538073635
C            3.72154919293026      -38.12379243760840       17.34898300462845
O            3.25085157905814      -37.07576086244842       18.19827424570033
C            2.89150740764651      -39.37078631703048       17.67667392333077
C            5.23090646275280      -38.26479948487667       17.76585353522109
C            5.73923282881473      -39.69972409481339       17.87623954985498
C            6.17702477811704      -37.46202058129304       16.86463599769920
O            5.26933475323724      -37.64678634437656       19.05470884498780
B            4.14289811901337      -36.89855153679186       19.21708008434349
C            3.89314355684767      -35.90455817392783       20.41570860005550
C            4.92825517890015      -35.87717202951710       21.41983490083715
C            4.97313936136370      -34.95259514591319       22.44551942065691
H            5.91257981920161      -34.88597184362761       22.98515827151880
C            3.81303993402983      -34.29077729244229       23.11133707329469
H            4.05768513743960      -33.89260467232989       24.09108209318508
C            2.45822637772845      -34.91768399094209       23.13575951432909
B            1.70969562425321      -34.91599073042908       24.49981126577956
O            2.21286427442093      -34.37867741081737       25.65527981997214
C            1.34433587326842      -34.71947883744070       26.73444176813575
C            1.19498254179495      -33.52306764415736       27.67157153307579
C            2.01178252558367      -35.87210239283055       27.49599289257062
C            0.02335551759281      -35.15627784619173       26.00328295465077
C           -0.99314427733376      -34.01445914562024       25.87527904613827
C           -0.67023786907137      -36.37874740660498       26.59995973166998
O            0.47012431129678      -35.46417459527219       24.68446859908418
C            1.89235105747988      -35.48939632394772       22.06876305137628
C            2.42881713902551      -35.60762263264731       20.71390972855591
H            1.75719164284402      -36.10606020968311       20.02637201865314
C            3.28910094339713      -34.57163932139984       20.05853383902736
C            3.83029645632024      -33.40582749795009       20.69554493866677
C            4.29785432000106      -33.42969582334992       21.99749657781475
H            4.89349154352694      -32.57567849137158       22.30491831201651
H            2.41802963270339      -37.68077442306483       15.70818167411713
H            3.91945243674861      -38.48360618140670       15.23041637812620
H            3.91774581189979      -36.76475412631943       15.66815325973996
H            1.84096998700309      -39.13835045762829       17.51773224297803
H            3.02059371422446      -39.64566279174235       18.72044952644261
H            3.16912215752109      -40.20453237512702       17.03891112922992
H            5.63981745496497      -40.20882431383657       16.92145824447633
H            5.19852507117983      -40.24948440901387       18.63954817425471
H            6.78924761474312      -39.67927417546470       18.15681918597543
H            6.23130436045602      -37.89218023569222       15.86927656777319
H            7.16893276141650      -37.47285297412082       17.31033367178438
H            5.84962817792718      -36.42720432902676       16.80199088719587
H            5.85337122592247      -36.35783585645525       21.13473038150830
H            2.15522210739165      -33.31787500923938       28.13837538445026
H            0.46732014454723      -33.74446970287357       28.44779235469736
H            0.88786318475700      -32.63477797068281       27.12928289822486
H            2.99274128387392      -35.54286581062810       27.83120249628081
H            2.15144374618522      -36.72556146301976       26.83726423529298
H            1.42297762101223      -36.16517379364648       28.36001035764444
H           -1.41446809760188      -33.75254750676601       26.84122369729646
H           -1.79399193459150      -34.33970251427174       25.21524923845799
H           -0.52396836739965      -33.14196764179736       25.42767026328126
H           -0.93927246337622      -36.19190478125407       27.63598998740829
H           -0.03444387251841      -37.25614227647174       26.54146229570093
H           -1.57473414792887      -36.58043995439849       26.03155394687606
H            0.91101059722537      -35.92529047222814       22.20253744145641
H            3.07685409083163      -34.43299241607055       19.00121051463191
H            4.22174989941021      -32.64135347059874       20.03780304713032

          :  Hamiltonian                  GFN2-xTB          :
         :: total energy             -82.289571715800 Eh    ::
         :: gradient norm              0.000987825286 Eh/a0 ::
         :: HOMO-LUMO gap              2.354710451152 eV    ::
         :: SCC energy               -83.366937263987 Eh    ::
         :: -> dispersion             -0.061114618178 Eh    ::
         :: repulsion energy           1.076397492656 Eh    ::

    * Orbital Energies and Occupations

         #    Occupation            Energy/Eh            Energy/eV
      -------------------------------------------------------------
         1        2.0000           -0.6947939             -18.9063
       ...           ...                  ...                  ...
        63        2.0000           -0.4363011             -11.8724
        64        2.0000           -0.4342703             -11.8171
        65        2.0000           -0.4287455             -11.6668
        66        2.0000           -0.4246805             -11.5561
        67        2.0000           -0.4177056             -11.3663
        68        2.0000           -0.4123326             -11.2201
        69        2.0000           -0.4082753             -11.1097
        70        2.0000           -0.4027518             -10.9594
        71        2.0000           -0.3990919             -10.8598
        72        2.0000           -0.3943187             -10.7300
        73        2.0000           -0.3805341             -10.3549
        74        2.0000           -0.3750386             -10.2053
        75        2.0000           -0.3110370              -8.4637 (HOMO)
        76                         -0.2245029              -6.1090 (LUMO)
        77                         -0.2202700              -5.9939
        78                         -0.1509038              -4.1063
        79                         -0.1020766              -2.7776
        80                         -0.0635856              -1.7303
        81                         -0.0009183              -0.0250
        82                          0.0129278               0.3518
        83                          0.0206947               0.5631
        84                          0.0261203               0.7108
        85                          0.0316422               0.8610
        86                          0.0526938               1.4339
       ...                                ...                  ...
       144                          0.6973348              18.9754
      -------------------------------------------------------------
                  HL-Gap            0.0865340 Eh            2.3547 eV

     #   Z          covCN         q      C6AA      α(0)
     1   6 C        3.755    -0.118    22.808     6.810
     2   6 C        3.859     0.129    18.447     6.108
     3   8 O        1.638    -0.375    20.374     6.093
     4   6 C        3.755    -0.117    22.794     6.807
     5   6 C        3.861     0.129    18.454     6.109
     6   6 C        3.755    -0.118    22.823     6.812
     7   6 C        3.755    -0.117    22.789     6.807
     8   8 O        1.638    -0.369    20.258     6.076
     9   5 B        2.659     0.442    15.451     6.618
    10   6 C        3.839    -0.048    21.403     6.582
    11   6 C        2.895    -0.073    29.825     8.954
    12   6 C        3.799    -0.003    20.629     6.467
    13   1 H        0.925     0.028     2.611     2.527
    14   6 C        3.865    -0.022    20.931     6.506
    15   1 H        0.925     0.043     2.409     2.427
    16   6 C        2.863    -0.088    30.210     9.009
    17   5 B        2.663     0.431    15.562     6.639
    18   8 O        1.638    -0.374    20.369     6.092
    19   6 C        3.860     0.129    18.451     6.109
    20   6 C        3.755    -0.117    22.793     6.807
    21   6 C        3.755    -0.116    22.772     6.804
    22   6 C        3.860     0.129    18.451     6.109
    23   6 C        3.755    -0.116    22.780     6.806
    24   6 C        3.755    -0.117    22.800     6.808
    25   8 O        1.638    -0.373    20.340     6.088
    26   6 C        2.896    -0.025    28.627     8.772
    27   6 C        3.861    -0.027    21.018     6.520
    28   1 H        0.925     0.038     2.469     2.457
    29   6 C        3.870     0.005    20.455     6.431
    30   6 C        2.891    -0.078    29.934     8.970
    31   6 C        3.801    -0.001    20.605     6.463
    32   1 H        0.925     0.028     2.615     2.529
    33   1 H        0.925     0.056     2.250     2.346
    34   1 H        0.925     0.041     2.434     2.440
    35   1 H        0.925     0.052     2.292     2.368
    36   1 H        0.925     0.053     2.277     2.360
    37   1 H        0.925     0.045     2.386     2.415
    38   1 H        0.925     0.044     2.398     2.422
    39   1 H        0.925     0.042     2.428     2.437
    40   1 H        0.925     0.054     2.276     2.359
    41   1 H        0.925     0.056     2.244     2.343
    42   1 H        0.925     0.044     2.393     2.419
    43   1 H        0.925     0.054     2.272     2.357
    44   1 H        0.925     0.044     2.399     2.422
    45   1 H        0.926     0.028     2.622     2.532
    46   1 H        0.925     0.053     2.277     2.360
    47   1 H        0.925     0.039     2.462     2.453
    48   1 H        0.925     0.052     2.298     2.371
    49   1 H        0.925     0.051     2.303     2.373
    50   1 H        0.925     0.044     2.403     2.424
    51   1 H        0.925     0.042     2.427     2.436
    52   1 H        0.925     0.042     2.423     2.434
    53   1 H        0.925     0.052     2.296     2.370
    54   1 H        0.925     0.044     2.399     2.422
    55   1 H        0.925     0.039     2.460     2.453
    56   1 H        0.925     0.052     2.298     2.371
    57   1 H        0.925     0.054     2.271     2.357
    58   1 H        0.925     0.038     2.476     2.461
    59   1 H        0.925     0.031     2.565     2.505
    60   1 H        0.925     0.015     2.805     2.619

Wiberg/Mayer (AO) data.
largest (>0.10) Wiberg bond orders for each atom

     #   Z sym  total        # sym  WBO       # sym  WBO       # sym  WBO
 ---------------------------------------------------------------------------
     1   6 C    3.994 --     2 C    0.997    34 H    0.984    33 H    0.982
                            35 H    0.982
     2   6 C    3.941 --     1 C    0.997     4 C    0.991     3 O    0.949
                             5 C    0.937
     3   8 O    2.232 --     9 B    1.136     2 C    0.949
     4   6 C    3.994 --     2 C    0.991    38 H    0.984    37 H    0.984
                            36 H    0.983
     5   6 C    3.940 --     6 C    0.997     7 C    0.991     8 O    0.947
                             2 C    0.937
     6   6 C    3.994 --     5 C    0.997    39 H    0.984    41 H    0.982
                            40 H    0.982
     7   6 C    3.995 --     5 C    0.991    42 H    0.984    44 H    0.984
                            43 H    0.982
     8   8 O    2.242 --     9 B    1.146     5 C    0.947
     9   5 B    3.373 --     8 O    1.146     3 O    1.136    10 C    0.978
    10   6 C    3.938 --    11 C    1.182     9 B    0.978    27 C    0.848
                            29 C    0.767
    11   6 C    3.973 --    12 C    1.464    10 C    1.182    45 H    0.966
                            30 C    0.238
    12   6 C    3.961 --    11 C    1.464    13 H    0.970    14 C    0.920
                            31 C    0.493
    13   1 H    0.999 --    12 C    0.970
    14   6 C    3.958 --    16 C    1.006    15 H    0.968    31 C    0.928
                            12 C    0.920
    15   1 H    0.998 --    14 C    0.968
    16   6 C    3.977 --    26 C    1.805    17 B    1.007    14 C    1.006
    17   5 B    3.377 --    25 O    1.125    18 O    1.121    16 C    1.007
    18   8 O    2.227 --    17 B    1.121    19 C    0.954
    19   6 C    3.944 --    20 C    0.997    21 C    0.990    18 O    0.954
                            22 C    0.936
    20   6 C    3.994 --    19 C    0.997    47 H    0.985    46 H    0.983
                            48 H    0.982
    21   6 C    3.994 --    19 C    0.990    51 H    0.985    50 H    0.984
                            49 H    0.983
    22   6 C    3.943 --    24 C    0.996    23 C    0.990    25 O    0.954
                            19 C    0.936
    23   6 C    3.995 --    22 C    0.990    52 H    0.985    54 H    0.984
                            53 H    0.983
    24   6 C    3.994 --    22 C    0.996    55 H    0.985    57 H    0.983
                            56 H    0.982
    25   8 O    2.230 --    17 B    1.125    22 C    0.954
    26   6 C    3.989 --    16 C    1.805    27 C    1.066    58 H    0.964
    27   6 C    3.930 --    26 C    1.066    28 H    0.969    29 C    0.896
                            10 C    0.848
    28   1 H    0.998 --    27 C    0.969
    29   6 C    3.955 --    30 C    1.191    59 H    0.968    27 C    0.896
                            10 C    0.767
    30   6 C    3.963 --    31 C    1.451    29 C    1.191    60 H    0.968
                            11 C    0.238
    31   6 C    3.959 --    30 C    1.451    32 H    0.971    14 C    0.928
                            12 C    0.493
    32   1 H    0.999 --    31 C    0.971
    33   1 H    0.997 --     1 C    0.982
    34   1 H    0.998 --     1 C    0.984
    35   1 H    0.997 --     1 C    0.982
    36   1 H    0.997 --     4 C    0.983
    37   1 H    0.998 --     4 C    0.984
    38   1 H    0.998 --     4 C    0.984
    39   1 H    0.998 --     6 C    0.984
    40   1 H    0.997 --     6 C    0.982
    41   1 H    0.997 --     6 C    0.982
    42   1 H    0.998 --     7 C    0.984
    43   1 H    0.997 --     7 C    0.982
    44   1 H    0.998 --     7 C    0.984
    45   1 H    0.999 --    11 C    0.966
    46   1 H    0.997 --    20 C    0.983
    47   1 H    0.998 --    20 C    0.985
    48   1 H    0.997 --    20 C    0.982
    49   1 H    0.997 --    21 C    0.983
    50   1 H    0.998 --    21 C    0.984
    51   1 H    0.998 --    21 C    0.985
    52   1 H    0.998 --    23 C    0.985
    53   1 H    0.997 --    23 C    0.983
    54   1 H    0.998 --    23 C    0.984
    55   1 H    0.998 --    24 C    0.985
    56   1 H    0.997 --    24 C    0.982
    57   1 H    0.997 --    24 C    0.983
    58   1 H    0.998 --    26 C    0.964
    59   1 H    0.998 --    29 C    0.968
    60   1 H    0.999 --    30 C    0.968
 ---------------------------------------------------------------------------

molecular dipole:
                 x           y           z       tot (Debye)
 q only:       -0.148      -0.598      -0.172
   full:       -0.038      -0.652      -0.220       1.751

           -------------------------------------------------
          | TOTAL ENERGY              -82.289571715800 Eh   |
          | GRADIENT NORM               0.000987825286 Eh/α |
          | HOMO-LUMO GAP               2.354710451152 eV   |
           -------------------------------------------------

 * finished run on 2022/07/09 at 18:33:32.176
