   * xtb version 6.5.0 (homebrew) compiled by 'nhattrup@GPGGRP-SHANNON.CHEME.CMU.EDU' on
          program call               : /opt/homebrew/bin/xtb bvl_bpin2_scan_9-7_xtb.xyz --chrg 0 --uhf 0 --opt --input xcontrol_bvl_bpin2_scan_9-7_xtb

   ID    Z sym.   atoms
    1    6 C      1, 2, 4-7, 10-12, 14, 16, 19-24, 26, 27, 29-31
    2    8 O      3, 8, 18, 25
    3    5 B      9, 17
    4    1 H      13, 15, 28, 32-60
constraining bond 12 31 to    2.5000000 Å, actual value:    2.3884793 Å
constraining bond 10 29 to    1.7222000 Å, actual value:    1.8275712 Å

          :  Hamiltonian                  GFN2-xTB          :
 * total energy  :   -82.1372419 Eh     change       -0.1934680E-08 Eh
 * total energy  :   -82.2652920 Eh     change       -0.1280501E+00 Eh
 * total energy  :   -82.3104974 Eh     change       -0.4520537E-01 Eh
 * total energy  :   -82.3110903 Eh     change       -0.5929600E-03 Eh
 * total energy  :   -82.3113024 Eh     change       -0.2120573E-03 Eh
 * total energy  :   -82.3099076 Eh     change        0.1394797E-02 Eh
 * total energy  :   -82.3120387 Eh     change       -0.2131133E-02 Eh
 * total energy  :   -82.3122124 Eh     change       -0.1736708E-03 Eh
 * total energy  :   -82.3126571 Eh     change       -0.4447316E-03 Eh
 * total energy  :   -82.3128556 Eh     change       -0.1984616E-03 Eh
 * total energy  :   -82.3131031 Eh     change       -0.6287241E-04 Eh
 * total energy  :   -82.3131392 Eh     change       -0.3610284E-04 Eh
 * total energy  :   -82.3131631 Eh     change       -0.2391373E-04 Eh
 * total energy  :   -82.3131802 Eh     change       -0.1712842E-04 Eh
 * total energy  :   -82.3131955 Eh     change       -0.1530038E-04 Eh
 * total energy  :   -82.3132073 Eh     change       -0.1183284E-04 Eh
 * total energy  :   -82.3132150 Eh     change       -0.7640621E-05 Eh
 * total energy  :   -82.3132203 Eh     change       -0.5308484E-05 Eh
 * total energy  :   -82.3132234 Eh     change       -0.3077836E-05 Eh
   *** GEOMETRY OPTIMIZATION CONVERGED AFTER 21 ITERATIONS ***

 final structure:
================
60
 xtb: 6.5.0 (homebrew)
C            3.59407914545501      -37.63364285394894       15.82519311002225
C            3.78660600509789      -38.10148084533592       17.26584074324749
O            3.29703195897640      -37.10115720766936       18.15994920546206
C            2.94661266620245      -39.36321776419918       17.50081636198798
C            5.28291606676039      -38.27363261944016       17.71388948346644
C            5.79318153362828      -39.71237992299525       17.72488690855911
C            6.24932873118175      -37.40077711918646       16.90338998744638
O            5.28160227550953      -37.75817406612730       19.04596380274791
B            4.15628705494851      -37.00373597296691       19.22287809058041
C            3.88112906649046      -36.12951851410622       20.48003506035105
C            4.85609025423802      -36.16415470024861       21.56179743050559
C            4.86632990648763      -35.44534882971472       22.68208973497875
H            5.66508398303097      -35.59202605362822       23.39430272713249
C            3.85643916609689      -34.37106247231228       23.02825808887109
H            4.10943732802943      -33.95755967632900       24.00680625659644
C            2.47325190436380      -34.98045742318584       23.13363697343087
B            1.73959884404314      -34.92780619508220       24.50909159343132
O            2.27264278822146      -34.37409317022516       25.64051897931893
C            1.40727720912219      -34.65135062323975       26.74036331563335
C            1.30851602467393      -33.41965912125548       27.63749050689083
C            2.04668019644686      -35.79941958616831       27.53203267499087
C            0.06446874333749      -35.06969716265537       26.03880917361272
C           -0.91818784545527      -33.90167133207598       25.88456443858405
C           -0.66121973640451      -36.24618582546147       26.68785779202572
O            0.48682036799848      -35.43368170137620       24.72507746348489
C            1.88837672090112      -35.57683186961033       22.08687462993803
C            2.42364837956861      -35.72185961007283       20.72902735692647
H            1.73624615009767      -36.23005787864791       20.06002899733608
C            3.19027053890715      -34.61627217944240       20.05686811526938
C            3.62221817814586      -33.40327344111493       20.71540706580865
C            3.88072553062004      -33.24866510028107       22.01342814138055
H            4.18414827334692      -32.27859898005995       22.37963938112993
H            2.52927184295355      -37.57103755930951       15.61443380938094
H            4.04763766500460      -38.34126746123400       15.13657066723513
H            4.02574329547225      -36.65009118870218       15.67046231207614
H            1.90028398474649      -39.11917957238633       17.33142768365917
H            3.05144728631202      -39.69880422901031       18.52955747801340
H            3.23753866970436      -40.15958053785481       16.82237146324297
H            5.71953609099121      -40.14578402460806       16.73108247883126
H            5.23522639892521      -40.32142248316580       18.42863269072190
H            6.83588607592225      -39.71297988411185       18.03256951300714
H            6.34032648216497      -37.75720579805998       15.88179130794772
H            7.22633530481182      -37.43473786413637       17.37984187413431
H            5.91217216148534      -36.36714794513683       16.90519294243420
H            5.64845384895891      -36.88312165791585       21.39172261033990
H            2.28185132361158      -33.22822663987295       28.08247455504735
H            0.58688743043724      -33.59145621635911       28.43168961515870
H            1.01981088725000      -32.54150380036150       27.06912823891377
H            3.04421061522629      -35.49410604027238       27.83964763670918
H            2.14452925755803      -36.68028867605956       26.90245338572004
H            1.46269513365131      -36.04052491900572       28.41522241004626
H           -1.31487172355457      -33.59265345048275       26.84703510309875
H           -1.74004837231753      -34.22511872683295       25.24992316639908
H           -0.43057014388995      -33.06052267190037       25.39835723390430
H           -0.90613653761426      -36.01221140269533       27.72044708499919
H           -0.05839137661486      -37.14766810593806       26.65268248944002
H           -1.58218186153591      -36.43562820974213       26.14216378880737
H            0.90586741868705      -36.00486974723398       22.24077041060934
H            3.05416519131826      -34.55555356872236       18.98805141377335
H            3.71836624026554      -32.54679780072461       20.05728304520119

          :  Hamiltonian                  GFN2-xTB          :
         :: total energy             -82.313223361237 Eh    ::
         :: gradient norm              0.000873338165 Eh/a0 ::
         :: HOMO-LUMO gap              3.145628292173 eV    ::
         :: SCC energy               -83.388886994369 Eh    ::
         :: -> dispersion             -0.061861587202 Eh    ::
         :: repulsion energy           1.074743736928 Eh    ::

    * Orbital Energies and Occupations

         #    Occupation            Energy/Eh            Energy/eV
      -------------------------------------------------------------
         1        2.0000           -0.6912243             -18.8092
       ...           ...                  ...                  ...
        63        2.0000           -0.4339687             -11.8089
        64        2.0000           -0.4336251             -11.7995
        65        2.0000           -0.4283665             -11.6564
        66        2.0000           -0.4225763             -11.4989
        67        2.0000           -0.4190014             -11.4016
        68        2.0000           -0.4146560             -11.2834
        69        2.0000           -0.4018720             -10.9355
        70        2.0000           -0.3996206             -10.8742
        71        2.0000           -0.3970214             -10.8035
        72        2.0000           -0.3950069             -10.7487
        73        2.0000           -0.3896336             -10.6025
        74        2.0000           -0.3589302              -9.7670
        75        2.0000           -0.3412413              -9.2856 (HOMO)
        76                         -0.2256415              -6.1400 (LUMO)
        77                         -0.2062710              -5.6129
        78                         -0.1813689              -4.9353
        79                         -0.1449527              -3.9444
        80                         -0.0950155              -2.5855
        81                         -0.0277787              -0.7559
        82                          0.0058171               0.1583
        83                          0.0103923               0.2828
        84                          0.0255546               0.6954
        85                          0.0299965               0.8162
        86                          0.0535225               1.4564
       ...                                ...                  ...
       144                          0.6704490              18.2438
      -------------------------------------------------------------
                  HL-Gap            0.1155997 Eh            3.1456 eV

     #   Z          covCN         q      C6AA      α(0)
     1   6 C        3.755    -0.117    22.797     6.808
     2   6 C        3.858     0.130    18.439     6.107
     3   8 O        1.638    -0.380    20.478     6.108
     4   6 C        3.755    -0.116    22.781     6.806
     5   6 C        3.861     0.130    18.445     6.108
     6   6 C        3.755    -0.118    22.807     6.810
     7   6 C        3.755    -0.116    22.778     6.805
     8   8 O        1.638    -0.373    20.338     6.088
     9   5 B        2.658     0.438    15.495     6.628
    10   6 C        3.775    -0.068    21.830     6.657
    11   6 C        2.890    -0.039    28.974     8.825
    12   6 C        2.895    -0.040    28.981     8.827
    13   1 H        0.926     0.025     2.660     2.551
    14   6 C        3.863    -0.018    20.850     6.493
    15   1 H        0.924     0.043     2.413     2.429
    16   6 C        2.870    -0.081    30.016     8.981
    17   5 B        2.660     0.432    15.558     6.640
    18   8 O        1.638    -0.370    20.280     6.079
    19   6 C        3.860     0.129    18.455     6.109
    20   6 C        3.755    -0.117    22.795     6.808
    21   6 C        3.755    -0.116    22.773     6.804
    22   6 C        3.859     0.129    18.451     6.109
    23   6 C        3.755    -0.116    22.779     6.805
    24   6 C        3.755    -0.117    22.801     6.809
    25   8 O        1.638    -0.373    20.344     6.088
    26   6 C        2.895    -0.030    28.743     8.790
    27   6 C        3.860    -0.005    20.620     6.458
    28   1 H        0.925     0.042     2.418     2.432
    29   6 C        3.803    -0.016    20.867     6.503
    30   6 C        2.889    -0.035    28.865     8.808
    31   6 C        2.895    -0.036    28.895     8.813
    32   1 H        0.926     0.026     2.642     2.542
    33   1 H        0.925     0.054     2.266     2.354
    34   1 H        0.925     0.040     2.448     2.447
    35   1 H        0.925     0.052     2.299     2.371
    36   1 H        0.925     0.052     2.296     2.369
    37   1 H        0.925     0.044     2.399     2.422
    38   1 H        0.925     0.043     2.410     2.428
    39   1 H        0.925     0.040     2.446     2.446
    40   1 H        0.925     0.053     2.288     2.366
    41   1 H        0.925     0.055     2.257     2.349
    42   1 H        0.925     0.043     2.410     2.428
    43   1 H        0.925     0.053     2.283     2.363
    44   1 H        0.925     0.043     2.406     2.426
    45   1 H        0.925     0.034     2.532     2.488
    46   1 H        0.925     0.054     2.268     2.355
    47   1 H        0.925     0.039     2.458     2.452
    48   1 H        0.925     0.052     2.298     2.370
    49   1 H        0.925     0.052     2.294     2.368
    50   1 H        0.925     0.044     2.403     2.424
    51   1 H        0.925     0.042     2.422     2.434
    52   1 H        0.925     0.042     2.416     2.431
    53   1 H        0.925     0.052     2.296     2.369
    54   1 H        0.925     0.043     2.403     2.424
    55   1 H        0.925     0.040     2.453     2.449
    56   1 H        0.925     0.052     2.296     2.370
    57   1 H        0.925     0.054     2.270     2.356
    58   1 H        0.925     0.036     2.498     2.472
    59   1 H        0.926     0.038     2.470     2.458
    60   1 H        0.925     0.025     2.657     2.549

Wiberg/Mayer (AO) data.
largest (>0.10) Wiberg bond orders for each atom

     #   Z sym  total        # sym  WBO       # sym  WBO       # sym  WBO
 ---------------------------------------------------------------------------
     1   6 C    3.994 --     2 C    0.997    34 H    0.984    33 H    0.983
                            35 H    0.982
     2   6 C    3.942 --     1 C    0.997     4 C    0.991     3 O    0.952
                             5 C    0.937
     3   8 O    2.220 --     9 B    1.119     2 C    0.952
     4   6 C    3.994 --     2 C    0.991    38 H    0.984    37 H    0.984
                            36 H    0.983
     5   6 C    3.942 --     6 C    0.997     7 C    0.991     8 O    0.950
                             2 C    0.937
     6   6 C    3.994 --     5 C    0.997    39 H    0.984    41 H    0.982
                            40 H    0.982
     7   6 C    3.995 --     5 C    0.991    42 H    0.984    44 H    0.984
                            43 H    0.983
     8   8 O    2.230 --     9 B    1.130     5 C    0.950
     9   5 B    3.382 --     8 O    1.130     3 O    1.119    10 C    1.012
    10   6 C    3.917 --    11 C    1.103     9 B    1.012    27 C    0.875
                            29 C    0.738
    11   6 C    3.991 --    12 C    1.845    10 C    1.103    45 H    0.961
    12   6 C    3.988 --    11 C    1.845    14 C    0.981    13 H    0.969
    13   1 H    0.999 --    12 C    0.969
    14   6 C    3.995 --    31 C    0.985    12 C    0.981    16 C    0.975
                            15 H    0.973
    15   1 H    0.998 --    14 C    0.973
    16   6 C    3.975 --    26 C    1.809    17 B    1.001    14 C    0.975
    17   5 B    3.375 --    18 O    1.129    25 O    1.127    16 C    1.001
    18   8 O    2.235 --    17 B    1.129    19 C    0.953
    19   6 C    3.943 --    20 C    0.997    21 C    0.990    18 O    0.953
                            22 C    0.937
    20   6 C    3.994 --    19 C    0.997    47 H    0.985    46 H    0.983
                            48 H    0.982
    21   6 C    3.994 --    19 C    0.990    51 H    0.984    50 H    0.984
                            49 H    0.983
    22   6 C    3.943 --    24 C    0.996    23 C    0.990    25 O    0.953
                            19 C    0.937
    23   6 C    3.995 --    22 C    0.990    52 H    0.984    54 H    0.984
                            53 H    0.983
    24   6 C    3.994 --    22 C    0.996    55 H    0.984    57 H    0.983
                            56 H    0.982
    25   8 O    2.231 --    17 B    1.127    22 C    0.953
    26   6 C    3.988 --    16 C    1.809    27 C    1.070    58 H    0.965
    27   6 C    3.969 --    26 C    1.070    28 H    0.969    29 C    0.933
                            10 C    0.875
    28   1 H    0.998 --    27 C    0.969
    29   6 C    3.940 --    30 C    1.122    59 H    0.974    27 C    0.933
                            10 C    0.738
    30   6 C    3.991 --    31 C    1.830    29 C    1.122    60 H    0.963
    31   6 C    3.985 --    30 C    1.830    14 C    0.985    32 H    0.970
    32   1 H    0.999 --    31 C    0.970
    33   1 H    0.997 --     1 C    0.983
    34   1 H    0.998 --     1 C    0.984
    35   1 H    0.997 --     1 C    0.982
    36   1 H    0.997 --     4 C    0.983
    37   1 H    0.998 --     4 C    0.984
    38   1 H    0.998 --     4 C    0.984
    39   1 H    0.998 --     6 C    0.984
    40   1 H    0.997 --     6 C    0.982
    41   1 H    0.997 --     6 C    0.982
    42   1 H    0.998 --     7 C    0.984
    43   1 H    0.997 --     7 C    0.983
    44   1 H    0.998 --     7 C    0.984
    45   1 H    0.999 --    11 C    0.961
    46   1 H    0.997 --    20 C    0.983
    47   1 H    0.998 --    20 C    0.985
    48   1 H    0.997 --    20 C    0.982
    49   1 H    0.997 --    21 C    0.983
    50   1 H    0.998 --    21 C    0.984
    51   1 H    0.998 --    21 C    0.984
    52   1 H    0.998 --    23 C    0.984
    53   1 H    0.997 --    23 C    0.983
    54   1 H    0.998 --    23 C    0.984
    55   1 H    0.998 --    24 C    0.984
    56   1 H    0.997 --    24 C    0.982
    57   1 H    0.997 --    24 C    0.983
    58   1 H    0.998 --    26 C    0.965
    59   1 H    0.998 --    29 C    0.974
    60   1 H    0.999 --    30 C    0.963
 ---------------------------------------------------------------------------

molecular dipole:
                 x           y           z       tot (Debye)
 q only:       -0.287      -0.412      -0.122
   full:       -0.322      -0.498      -0.183       1.578

           -------------------------------------------------
          | TOTAL ENERGY              -82.313223361237 Eh   |
          | GRADIENT NORM               0.000873338165 Eh/α |
          | HOMO-LUMO GAP               3.145628292173 eV   |
           -------------------------------------------------

 * finished run on 2022/07/09 at 18:33:43.855
