   * xtb version 6.5.0 (homebrew) compiled by 'nhattrup@GPGGRP-SHANNON.CHEME.CMU.EDU' on
          program call               : /opt/homebrew/bin/xtb bvl_bpin2_scan_9-6_xtb.xyz --chrg 0 --uhf 0 --opt --input xcontrol_bvl_bpin2_scan_9-6_xtb

   ID    Z sym.   atoms
    1    6 C      1, 2, 4-7, 10-12, 14, 16, 19-24, 26, 27, 29-31
    2    8 O      3, 8, 18, 25
    3    5 B      9, 17
    4    1 H      13, 15, 28, 32-60
constraining bond 12 31 to    2.5000000 Å, actual value:    2.3877236 Å
constraining bond 10 29 to    1.8333000 Å, actual value:    1.9395344 Å

          :  Hamiltonian                  GFN2-xTB          :
 * total energy  :   -82.1259883 Eh     change       -0.1445173E-08 Eh
 * total energy  :   -82.2567325 Eh     change       -0.1307442E+00 Eh
 * total energy  :   -82.3005720 Eh     change       -0.4383947E-01 Eh
 * total energy  :   -82.3011847 Eh     change       -0.6126892E-03 Eh
 * total energy  :   -82.3018059 Eh     change       -0.6212112E-03 Eh
 * total energy  :   -82.3005683 Eh     change        0.1237591E-02 Eh
 * total energy  :   -82.3021888 Eh     change       -0.1620482E-02 Eh
 * total energy  :   -82.3024093 Eh     change       -0.2204936E-03 Eh
 * total energy  :   -82.3027861 Eh     change       -0.3768073E-03 Eh
 * total energy  :   -82.3029505 Eh     change       -0.1643906E-03 Eh
 * total energy  :   -82.3034482 Eh     change       -0.1132120E-04 Eh
 * total energy  :   -82.3034602 Eh     change       -0.1196052E-04 Eh
 * total energy  :   -82.3034687 Eh     change       -0.8576169E-05 Eh
 * total energy  :   -82.3034810 Eh     change       -0.1221067E-04 Eh
 * total energy  :   -82.3034926 Eh     change       -0.1162091E-04 Eh
 * total energy  :   -82.3035069 Eh     change       -0.1431642E-04 Eh
 * total energy  :   -82.3035203 Eh     change       -0.1336183E-04 Eh
 * total energy  :   -82.3035284 Eh     change       -0.8132598E-05 Eh
 * total energy  :   -82.3035332 Eh     change       -0.4795307E-05 Eh
   *** GEOMETRY OPTIMIZATION CONVERGED AFTER 37 ITERATIONS ***

 final structure:
================
60
 xtb: 6.5.0 (homebrew)
C            3.63416756233489      -37.61232709363939       15.81601200648796
C            3.79890155075759      -38.09012826548121       17.25680387366264
O            3.30780593504842      -37.09116582398564       18.15064577862936
C            2.93862403693562      -39.34170182877623       17.47284261337438
C            5.28660312502827      -38.28496842255576       17.72435323496286
C            5.77464441510994      -39.73153330146627       17.73688825976749
C            6.27809298159571      -37.42618589454133       16.92915320066527
O            5.27489970781529      -37.77680174020063       19.05828906427631
B            4.15071776407721      -37.01729235699791       19.22990455802135
C            3.85845776439022      -36.18602651103175       20.50432892586273
C            4.84685616144977      -36.16030687671797       21.56005123021781
C            4.85339058231108      -35.42543368987414       22.67373509933973
H            5.67787504278323      -35.52373221516858       23.36467551928799
C            3.82402658657501      -34.36282516692906       23.01451320773127
H            4.07495295916991      -33.94144675031335       23.99023385948472
C            2.44869029172929      -34.98542350593352       23.12766735397805
B            1.72528682364046      -34.93429388800527       24.50856666145921
O            2.26891248766016      -34.37701178470228       25.63296738917546
C            1.41524201251007      -34.65361161306062       26.74198519212341
C            1.32699076374887      -33.42068280721845       27.63841575774905
C            2.06341814880094      -35.80093245619010       27.52742986811851
C            0.06567343987114      -35.07221398056768       26.05388329871122
C           -0.91362973899384      -33.90110985757880       25.90252183431952
C           -0.65647519234886      -36.24567748239873       26.71188898040522
O            0.47588884946834      -35.44141720661337       24.73748891745803
C            1.86937942474989      -35.59271072050542       22.08612481658005
C            2.41384980653194      -35.73172319577050       20.72586018509217
H            1.72758612321343      -36.25201112484397       20.06286740953007
C            3.10432951006587      -34.58622872560829       20.04594459186012
C            3.57920838644552      -33.39750342955332       20.69342004854659
C            3.84899525284466      -33.24138354355595       21.99307582713721
H            4.19464457120110      -32.28170028588318       22.34856498135967
H            2.57371010216575      -37.53459568767620       15.58909089478887
H            4.08894264820081      -38.32287784187673       15.13121468742594
H            4.08148274810296      -36.63401820461887       15.67258750909251
H            1.89846405080757      -39.08162334531907       17.28966761940731
H            3.02353401257919      -39.68235598393821       18.50183458016023
H            3.22813009514776      -40.13923264016795       16.79530195554875
H            5.70884747313380      -40.15963164857597       16.74030398582214
H            5.19729456264013      -40.33438991231199       18.43022063368100
H            6.81250141067177      -39.74890459735349       18.05999875023285
H            6.37610660593821      -37.78274022066687       15.90820982070050
H            7.24829099600605      -37.47840746020676       17.41783852714976
H            5.95935934249330      -36.38676462214367       16.92808921891204
H            5.66784270685356      -36.84506728227660       21.38160722672852
H            2.30473249240659      -33.23174331298380       28.07474061671517
H            0.61144570598373      -33.58889005511540       28.43879390596027
H            1.03674076933299      -32.54247343712298       27.07091559806972
H            3.06260069474336      -35.49330961259404       27.82743477075475
H            2.15865822723183      -36.68079919258575       26.89598299759897
H            1.48702728197708      -36.04436438162450       28.41493378919936
H           -1.30559011819747      -33.58887393326746       26.86588685176581
H           -1.73875441651194      -34.22174414195027       25.27072023648664
H           -0.42373057213571      -33.06287551109305       25.41344194198559
H           -0.89311519422163      -36.00921525149500       27.74583095109814
H           -0.05448119996531      -37.14769760683188       26.67410870599691
H           -1.58171732868117      -36.43580225623373       26.17367544676967
H            0.89395552632047      -36.03576999235032       22.24145345107363
H            2.99491623408397      -34.55706035253950       18.97382995424600
H            3.70857800637486      -32.54831996940514       20.03093182722890

          :  Hamiltonian                  GFN2-xTB          :
         :: total energy             -82.303533178284 Eh    ::
         :: gradient norm              0.000582441686 Eh/a0 ::
         :: HOMO-LUMO gap              2.856246800982 eV    ::
         :: SCC energy               -83.378668867084 Eh    ::
         :: -> dispersion             -0.061824692065 Eh    ::
         :: repulsion energy           1.074160115259 Eh    ::

    * Orbital Energies and Occupations

         #    Occupation            Energy/Eh            Energy/eV
      -------------------------------------------------------------
         1        2.0000           -0.6900728             -18.7778
       ...           ...                  ...                  ...
        63        2.0000           -0.4343625             -11.8196
        64        2.0000           -0.4330442             -11.7837
        65        2.0000           -0.4252520             -11.5717
        66        2.0000           -0.4220466             -11.4845
        67        2.0000           -0.4190995             -11.4043
        68        2.0000           -0.4160903             -11.3224
        69        2.0000           -0.4015954             -10.9280
        70        2.0000           -0.3988558             -10.8534
        71        2.0000           -0.3967939             -10.7973
        72        2.0000           -0.3942945             -10.7293
        73        2.0000           -0.3908390             -10.6353
        74        2.0000           -0.3614703              -9.8361
        75        2.0000           -0.3362996              -9.1512 (HOMO)
        76                         -0.2313345              -6.2949 (LUMO)
        77                         -0.2148861              -5.8473
        78                         -0.1807698              -4.9190
        79                         -0.1440237              -3.9191
        80                         -0.0951837              -2.5901
        81                         -0.0582416              -1.5848
        82                          0.0080653               0.2195
        83                          0.0100808               0.2743
        84                          0.0266153               0.7242
        85                          0.0297920               0.8107
        86                          0.0550975               1.4993
       ...                                ...                  ...
       144                          0.6722614              18.2932
      -------------------------------------------------------------
                  HL-Gap            0.1049651 Eh            2.8562 eV

     #   Z          covCN         q      C6AA      α(0)
     1   6 C        3.755    -0.117    22.793     6.807
     2   6 C        3.859     0.130    18.437     6.107
     3   8 O        1.638    -0.381    20.495     6.111
     4   6 C        3.755    -0.116    22.778     6.805
     5   6 C        3.860     0.130    18.443     6.108
     6   6 C        3.755    -0.117    22.805     6.809
     7   6 C        3.755    -0.116    22.772     6.804
     8   8 O        1.638    -0.374    20.356     6.090
     9   5 B        2.658     0.436    15.522     6.634
    10   6 C        3.665    -0.070    22.116     6.745
    11   6 C        2.890    -0.039    28.967     8.824
    12   6 C        2.894    -0.041    29.010     8.831
    13   1 H        0.926     0.025     2.658     2.550
    14   6 C        3.862    -0.018    20.858     6.495
    15   1 H        0.924     0.043     2.406     2.426
    16   6 C        2.869    -0.080    29.986     8.976
    17   5 B        2.662     0.432    15.553     6.638
    18   8 O        1.638    -0.369    20.275     6.078
    19   6 C        3.860     0.129    18.456     6.110
    20   6 C        3.755    -0.117    22.796     6.808
    21   6 C        3.755    -0.116    22.774     6.805
    22   6 C        3.860     0.129    18.452     6.109
    23   6 C        3.755    -0.116    22.780     6.806
    24   6 C        3.755    -0.117    22.802     6.809
    25   8 O        1.638    -0.372    20.332     6.087
    26   6 C        2.895    -0.030    28.740     8.790
    27   6 C        3.860    -0.002    20.580     6.452
    28   1 H        0.925     0.044     2.399     2.422
    29   6 C        3.693    -0.017    21.059     6.566
    30   6 C        2.889    -0.035    28.864     8.808
    31   6 C        2.895    -0.037    28.910     8.816
    32   1 H        0.926     0.027     2.636     2.539
    33   1 H        0.925     0.054     2.270     2.356
    34   1 H        0.925     0.040     2.451     2.448
    35   1 H        0.925     0.051     2.303     2.373
    36   1 H        0.925     0.052     2.299     2.371
    37   1 H        0.925     0.044     2.403     2.424
    38   1 H        0.925     0.043     2.415     2.430
    39   1 H        0.925     0.040     2.451     2.448
    40   1 H        0.925     0.052     2.291     2.367
    41   1 H        0.925     0.055     2.261     2.352
    42   1 H        0.925     0.043     2.414     2.430
    43   1 H        0.925     0.053     2.288     2.366
    44   1 H        0.925     0.043     2.409     2.427
    45   1 H        0.925     0.035     2.519     2.482
    46   1 H        0.925     0.054     2.267     2.355
    47   1 H        0.925     0.039     2.457     2.451
    48   1 H        0.925     0.052     2.297     2.370
    49   1 H        0.925     0.052     2.293     2.368
    50   1 H        0.925     0.044     2.401     2.423
    51   1 H        0.925     0.042     2.421     2.433
    52   1 H        0.925     0.043     2.415     2.430
    53   1 H        0.925     0.052     2.294     2.369
    54   1 H        0.925     0.044     2.402     2.424
    55   1 H        0.925     0.040     2.452     2.449
    56   1 H        0.925     0.052     2.294     2.369
    57   1 H        0.925     0.054     2.268     2.355
    58   1 H        0.925     0.037     2.495     2.470
    59   1 H        0.926     0.040     2.447     2.446
    60   1 H        0.925     0.026     2.646     2.544

Wiberg/Mayer (AO) data.
largest (>0.10) Wiberg bond orders for each atom

     #   Z sym  total        # sym  WBO       # sym  WBO       # sym  WBO
 ---------------------------------------------------------------------------
     1   6 C    3.994 --     2 C    0.997    34 H    0.984    33 H    0.983
                            35 H    0.982
     2   6 C    3.943 --     1 C    0.997     4 C    0.991     3 O    0.953
                             5 C    0.937
     3   8 O    2.217 --     9 B    1.114     2 C    0.953
     4   6 C    3.994 --     2 C    0.991    38 H    0.984    37 H    0.984
                            36 H    0.983
     5   6 C    3.942 --     6 C    0.997     7 C    0.991     8 O    0.952
                             2 C    0.937
     6   6 C    3.994 --     5 C    0.997    39 H    0.984    41 H    0.982
                            40 H    0.982
     7   6 C    3.995 --     5 C    0.991    42 H    0.984    44 H    0.984
                            43 H    0.983
     8   8 O    2.227 --     9 B    1.125     5 C    0.952
     9   5 B    3.386 --     8 O    1.125     3 O    1.114    10 C    1.022
    10   6 C    3.912 --    11 C    1.136     9 B    1.022    27 C    0.889
                            29 C    0.657
    11   6 C    3.991 --    12 C    1.814    10 C    1.136    45 H    0.960
    12   6 C    3.987 --    11 C    1.814    14 C    0.979    13 H    0.970
    13   1 H    0.999 --    12 C    0.970
    14   6 C    3.995 --    31 C    0.983    12 C    0.979    16 C    0.978
                            15 H    0.973
    15   1 H    0.998 --    14 C    0.973
    16   6 C    3.975 --    26 C    1.820    17 B    0.999    14 C    0.978
    17   5 B    3.375 --    18 O    1.130    25 O    1.129    16 C    0.999
    18   8 O    2.236 --    17 B    1.130    19 C    0.953
    19   6 C    3.943 --    20 C    0.997    21 C    0.991    18 O    0.953
                            22 C    0.937
    20   6 C    3.994 --    19 C    0.997    47 H    0.985    46 H    0.983
                            48 H    0.982
    21   6 C    3.994 --    19 C    0.991    51 H    0.984    50 H    0.984
                            49 H    0.983
    22   6 C    3.942 --    24 C    0.997    23 C    0.990    25 O    0.953
                            19 C    0.937
    23   6 C    3.995 --    22 C    0.990    52 H    0.984    54 H    0.984
                            53 H    0.983
    24   6 C    3.994 --    22 C    0.997    55 H    0.984    57 H    0.983
                            56 H    0.982
    25   8 O    2.232 --    17 B    1.129    22 C    0.953
    26   6 C    3.988 --    16 C    1.820    27 C    1.056    58 H    0.965
    27   6 C    3.976 --    26 C    1.056    28 H    0.968    29 C    0.948
                            10 C    0.889
    28   1 H    0.998 --    27 C    0.968
    29   6 C    3.936 --    30 C    1.162    59 H    0.974    27 C    0.948
                            10 C    0.657
    30   6 C    3.991 --    31 C    1.794    29 C    1.162    60 H    0.962
    31   6 C    3.981 --    30 C    1.794    14 C    0.983    32 H    0.971
    32   1 H    0.999 --    31 C    0.971
    33   1 H    0.997 --     1 C    0.983
    34   1 H    0.998 --     1 C    0.984
    35   1 H    0.997 --     1 C    0.982
    36   1 H    0.997 --     4 C    0.983
    37   1 H    0.998 --     4 C    0.984
    38   1 H    0.998 --     4 C    0.984
    39   1 H    0.998 --     6 C    0.984
    40   1 H    0.997 --     6 C    0.982
    41   1 H    0.997 --     6 C    0.982
    42   1 H    0.998 --     7 C    0.984
    43   1 H    0.997 --     7 C    0.983
    44   1 H    0.998 --     7 C    0.984
    45   1 H    0.999 --    11 C    0.960
    46   1 H    0.997 --    20 C    0.983
    47   1 H    0.998 --    20 C    0.985
    48   1 H    0.997 --    20 C    0.982
    49   1 H    0.997 --    21 C    0.983
    50   1 H    0.998 --    21 C    0.984
    51   1 H    0.998 --    21 C    0.984
    52   1 H    0.998 --    23 C    0.984
    53   1 H    0.997 --    23 C    0.983
    54   1 H    0.998 --    23 C    0.984
    55   1 H    0.998 --    24 C    0.984
    56   1 H    0.997 --    24 C    0.982
    57   1 H    0.997 --    24 C    0.983
    58   1 H    0.998 --    26 C    0.965
    59   1 H    0.998 --    29 C    0.974
    60   1 H    0.999 --    30 C    0.962
 ---------------------------------------------------------------------------

molecular dipole:
                 x           y           z       tot (Debye)
 q only:       -0.308      -0.372      -0.069
   full:       -0.294      -0.448      -0.154       1.417

           -------------------------------------------------
          | TOTAL ENERGY              -82.303533178284 Eh   |
          | GRADIENT NORM               0.000582441686 Eh/α |
          | HOMO-LUMO GAP               2.856246800982 eV   |
           -------------------------------------------------

 * finished run on 2022/07/09 at 18:33:42.436
