   * xtb version 6.5.0 (homebrew) compiled by 'nhattrup@GPGGRP-SHANNON.CHEME.CMU.EDU' on
          program call               : /opt/homebrew/bin/xtb bvl_bpin2_scan_1-5_xtb.xyz --chrg 0 --uhf 0 --opt --input xcontrol_bvl_bpin2_scan_1-5_xtb

   ID    Z sym.   atoms
    1    6 C      1, 2, 4-7, 10-12, 14, 16, 19-24, 26, 27, 29-31
    2    8 O      3, 8, 18, 25
    3    5 B      9, 17
    4    1 H      13, 15, 28, 32-60
constraining bond 12 31 to    1.6111000 Å, actual value:    1.5036278 Å
constraining bond 10 29 to    1.9444000 Å, actual value:    2.0597249 Å

          :  Hamiltonian                  GFN2-xTB          :
 * total energy  :   -82.1308901 Eh     change       -0.1843688E-08 Eh
 * total energy  :   -82.2557320 Eh     change       -0.1248419E+00 Eh
 * total energy  :   -82.3021712 Eh     change       -0.4643916E-01 Eh
 * total energy  :   -82.3028499 Eh     change       -0.6786994E-03 Eh
 * total energy  :   -82.2988267 Eh     change        0.4023197E-02 Eh
 * total energy  :   -82.3032207 Eh     change       -0.4394028E-02 Eh
 * total energy  :   -82.3033119 Eh     change       -0.9115452E-04 Eh
 * total energy  :   -82.3035751 Eh     change       -0.2631928E-03 Eh
 * total energy  :   -82.3036541 Eh     change       -0.7902297E-04 Eh
 * total energy  :   -82.3038039 Eh     change       -0.1498017E-03 Eh
 * total energy  :   -82.3043520 Eh     change       -0.1137564E-04 Eh
 * total energy  :   -82.3043616 Eh     change       -0.9590847E-05 Eh
 * total energy  :   -82.3043701 Eh     change       -0.8515803E-05 Eh
 * total energy  :   -82.3043775 Eh     change       -0.7357652E-05 Eh
 * total energy  :   -82.3043838 Eh     change       -0.6284821E-05 Eh
 * total energy  :   -82.3043895 Eh     change       -0.5767285E-05 Eh
 * total energy  :   -82.3043955 Eh     change       -0.5931546E-05 Eh
 * total energy  :   -82.3044014 Eh     change       -0.5874740E-05 Eh
 * total energy  :   -82.3044026 Eh     change       -0.1206374E-05 Eh
   *** GEOMETRY OPTIMIZATION CONVERGED AFTER 44 ITERATIONS ***

 final structure:
================
60
 xtb: 6.5.0 (homebrew)
C            3.46038739704438      -37.75936442519864       15.94035100939149
C            3.71248147373416      -38.17238412165192       17.38898904929740
O            3.23925418959031      -37.14843287844210       18.26270818683037
C            2.89555339167380      -39.43301826327803       17.69924767042814
C            5.22898127651627      -38.30869404461778       17.78520004890478
C            5.74193571765983      -39.74388894658960       17.88284284077010
C            6.16310494582369      -37.50463602168048       16.87212288962726
O            5.28491171898127      -37.69808574970835       19.07462880853150
B            4.14555107189993      -36.97130182807734       19.27145524066160
C            3.90494541790371      -36.03493251108062       20.49803036975670
C            4.93284796811898      -35.83782025918747       21.37963167333778
C            4.98724406577104      -34.84272316774307       22.40562878407475
H            5.93299106756891      -34.78474553517731       22.93134408912722
C            3.81439230842427      -34.24107752915219       23.13019408517422
H            4.06308688118188      -33.85916494956589       24.11429210600776
C            2.46682580358834      -34.86111192021520       23.12388941280589
B            1.70179444362395      -34.89245654103102       24.48430413636489
O            2.20721018145529      -34.38450469080490       25.65002500942141
C            1.33981847023560      -34.74804738244075       26.72318655934029
C            1.19529949385742      -33.57063456331030       27.68462423060658
C            2.00912391911764      -35.91695734316104       27.45742426134094
C            0.01753213128767      -35.16775906701164       25.98404016542589
C           -0.99977567919023      -34.02381837544752       25.88643058979532
C           -0.67428125232867      -36.40421108107260       26.55365654417974
O            0.46277217049730      -35.44214358077788       24.65584102263631
C            1.92316501793309      -35.40330968912141       22.03293496808304
C            2.51971245068197      -35.48663566700486       20.67632933293093
H            1.82955591582238      -35.97229688638544       19.98925964133187
C            3.14770892082698      -34.29746459729117       20.04931780379776
C            3.84081248697611      -33.31471766365825       20.67585826708300
C            4.36413222383812      -33.41129127546618       22.00828561253584
H            4.97091900061533      -32.56822977500904       22.31745029179191
H            2.38769713306511      -37.69946817244433       15.77351012989491
H            3.88121313533273      -38.49561193277145       15.26102728090615
H            3.88803992773340      -36.78471000813799       15.72877361756104
H            1.84250958349890      -39.20792731374365       17.54600533611429
H            3.02900875333590      -39.72132484699829       18.73884543836595
H            3.17912538100354      -40.25516242519411       17.04923081840493
H            5.63414366206630      -40.24842729289360       16.92653328675997
H            5.21064558424124      -40.29898327756982       18.64898191428143
H            6.79472990423973      -39.72248516785058       18.15302884960141
H            6.20104307055617      -37.93133564568671       15.87438433473843
H            7.16179263808149      -37.52032973658145       17.30243416293194
H            5.83838788172840      -36.46861574580777       16.81860262450149
H            5.87704258374053      -36.30052700591416       21.12330111404552
H            2.15724389897115      -33.37843991008369       28.15343637088572
H            0.46813594247583      -33.80420525663937       28.45758552090901
H            0.89115532631845      -32.67064397480718       27.16020045292577
H            2.99108935178857      -35.59468558967706       27.79638148916597
H            2.14716199290389      -36.75566526831715       26.77967637827311
H            1.42322750895165      -36.22908140153217       28.31666331674634
H           -1.41699586546355      -33.78476881221554       26.86004635105445
H           -1.80357029346956      -34.33334222858297       25.22250133594658
H           -0.53260636099924      -33.14081838424284       25.45780063000231
H           -0.94389750380172      -36.23898077707042       27.59330739716773
H           -0.03773591566921      -37.27970855059627       26.47803998537102
H           -1.57863282779440      -36.59551034430647       25.98146929078075
H            0.93960936651874      -35.84244865321733       22.12851501035509
H            2.95515090723615      -34.18244662271077       18.98991064662818
H            4.24898064267298      -32.51551532403579       20.07006221429077

          :  Hamiltonian                  GFN2-xTB          :
         :: total energy             -82.304402571349 Eh    ::
         :: gradient norm              0.000310181116 Eh/a0 ::
         :: HOMO-LUMO gap              2.891776369962 eV    ::
         :: SCC energy               -83.383633938850 Eh    ::
         :: -> dispersion             -0.061077055860 Eh    ::
         :: repulsion energy           1.078506865262 Eh    ::

    * Orbital Energies and Occupations

         #    Occupation            Energy/Eh            Energy/eV
      -------------------------------------------------------------
         1        2.0000           -0.6896180             -18.7655
       ...           ...                  ...                  ...
        63        2.0000           -0.4371574             -11.8957
        64        2.0000           -0.4323519             -11.7649
        65        2.0000           -0.4306296             -11.7180
        66        2.0000           -0.4213385             -11.4652
        67        2.0000           -0.4192892             -11.4094
        68        2.0000           -0.4140410             -11.2666
        69        2.0000           -0.4079380             -11.1006
        70        2.0000           -0.3987874             -10.8516
        71        2.0000           -0.3975236             -10.8172
        72        2.0000           -0.3957153             -10.7680
        73        2.0000           -0.3809626             -10.3665
        74        2.0000           -0.3666949              -9.9783
        75        2.0000           -0.3300990              -8.9824 (HOMO)
        76                         -0.2238281              -6.0907 (LUMO)
        77                         -0.2126455              -5.7864
        78                         -0.1702448              -4.6326
        79                         -0.1031103              -2.8058
        80                         -0.0855990              -2.3293
        81                         -0.0027020              -0.0735
        82                          0.0069691               0.1896
        83                          0.0094748               0.2578
        84                          0.0272415               0.7413
        85                          0.0293422               0.7984
        86                          0.0571079               1.5540
       ...                                ...                  ...
       144                          0.6964984              18.9527
      -------------------------------------------------------------
                  HL-Gap            0.1062708 Eh            2.8918 eV

     #   Z          covCN         q      C6AA      α(0)
     1   6 C        3.755    -0.117    22.794     6.808
     2   6 C        3.858     0.129    18.452     6.109
     3   8 O        1.638    -0.373    20.348     6.089
     4   6 C        3.755    -0.116    22.779     6.805
     5   6 C        3.858     0.129    18.452     6.109
     6   6 C        3.755    -0.118    22.809     6.810
     7   6 C        3.755    -0.116    22.775     6.805
     8   8 O        1.638    -0.372    20.322     6.085
     9   5 B        2.658     0.435    15.535     6.637
    10   6 C        3.461    -0.067    24.196     7.406
    11   6 C        2.894    -0.054    29.333     8.880
    12   6 C        3.849    -0.010    20.721     6.475
    13   1 H        0.925     0.030     2.587     2.515
    14   6 C        3.865    -0.020    20.887     6.499
    15   1 H        0.925     0.042     2.418     2.432
    16   6 C        2.863    -0.083    30.073     8.989
    17   5 B        2.662     0.432    15.551     6.637
    18   8 O        1.638    -0.373    20.342     6.088
    19   6 C        3.860     0.129    18.454     6.109
    20   6 C        3.755    -0.117    22.799     6.808
    21   6 C        3.755    -0.116    22.779     6.805
    22   6 C        3.860     0.129    18.455     6.109
    23   6 C        3.755    -0.116    22.785     6.806
    24   6 C        3.755    -0.118    22.806     6.809
    25   8 O        1.638    -0.370    20.292     6.081
    26   6 C        2.896    -0.028    28.699     8.784
    27   6 C        3.865    -0.015    20.807     6.487
    28   1 H        0.925     0.043     2.408     2.427
    29   6 C        3.489    -0.015    22.656     7.092
    30   6 C        2.889    -0.062    29.538     8.910
    31   6 C        3.851    -0.008    20.684     6.469
    32   1 H        0.925     0.030     2.589     2.516
    33   1 H        0.925     0.055     2.264     2.353
    34   1 H        0.925     0.040     2.451     2.448
    35   1 H        0.925     0.051     2.304     2.374
    36   1 H        0.925     0.052     2.290     2.366
    37   1 H        0.925     0.044     2.397     2.421
    38   1 H        0.925     0.043     2.415     2.430
    39   1 H        0.925     0.040     2.445     2.445
    40   1 H        0.925     0.052     2.292     2.368
    41   1 H        0.925     0.055     2.261     2.351
    42   1 H        0.925     0.043     2.410     2.428
    43   1 H        0.925     0.053     2.288     2.365
    44   1 H        0.925     0.043     2.403     2.424
    45   1 H        0.925     0.031     2.572     2.508
    46   1 H        0.925     0.054     2.270     2.356
    47   1 H        0.925     0.040     2.453     2.449
    48   1 H        0.925     0.052     2.294     2.369
    49   1 H        0.925     0.052     2.296     2.370
    50   1 H        0.925     0.044     2.399     2.422
    51   1 H        0.925     0.042     2.417     2.431
    52   1 H        0.925     0.043     2.414     2.430
    53   1 H        0.925     0.053     2.288     2.366
    54   1 H        0.925     0.044     2.397     2.421
    55   1 H        0.925     0.040     2.451     2.448
    56   1 H        0.925     0.052     2.294     2.368
    57   1 H        0.925     0.055     2.263     2.353
    58   1 H        0.925     0.037     2.492     2.469
    59   1 H        0.925     0.029     2.604     2.524
    60   1 H        0.925     0.019     2.752     2.594

Wiberg/Mayer (AO) data.
largest (>0.10) Wiberg bond orders for each atom

     #   Z sym  total        # sym  WBO       # sym  WBO       # sym  WBO
 ---------------------------------------------------------------------------
     1   6 C    3.994 --     2 C    0.997    34 H    0.984    33 H    0.982
                            35 H    0.982
     2   6 C    3.943 --     1 C    0.997     4 C    0.991     3 O    0.953
                             5 C    0.936
     3   8 O    2.230 --     9 B    1.127     2 C    0.953
     4   6 C    3.994 --     2 C    0.991    38 H    0.984    37 H    0.984
                            36 H    0.983
     5   6 C    3.942 --     6 C    0.996     7 C    0.991     8 O    0.952
                             2 C    0.936
     6   6 C    3.994 --     5 C    0.996    39 H    0.984    41 H    0.982
                            40 H    0.982
     7   6 C    3.995 --     5 C    0.991    42 H    0.984    44 H    0.984
                            43 H    0.983
     8   8 O    2.235 --     9 B    1.132     5 C    0.952
     9   5 B    3.379 --     8 O    1.132     3 O    1.127    10 C    1.000
    10   6 C    3.955 --    11 C    1.579     9 B    1.000    27 C    0.926
                            29 C    0.262
    11   6 C    3.984 --    10 C    1.579    12 C    1.201    45 H    0.964
                            30 C    0.110
    12   6 C    3.951 --    11 C    1.201    13 H    0.972    14 C    0.913
                            31 C    0.732
    13   1 H    0.999 --    12 C    0.972
    14   6 C    3.952 --    16 C    1.025    15 H    0.969    31 C    0.925
                            12 C    0.913
    15   1 H    0.998 --    14 C    0.969
    16   6 C    3.978 --    26 C    1.830    14 C    1.025    17 B    0.997
    17   5 B    3.376 --    25 O    1.132    18 O    1.127    16 C    0.997
    18   8 O    2.232 --    17 B    1.127    19 C    0.953
    19   6 C    3.943 --    20 C    0.997    21 C    0.991    18 O    0.953
                            22 C    0.937
    20   6 C    3.994 --    19 C    0.997    47 H    0.984    46 H    0.983
                            48 H    0.982
    21   6 C    3.994 --    19 C    0.991    51 H    0.984    50 H    0.984
                            49 H    0.983
    22   6 C    3.942 --    24 C    0.996    23 C    0.991    25 O    0.953
                            19 C    0.937
    23   6 C    3.995 --    22 C    0.991    52 H    0.984    54 H    0.984
                            53 H    0.983
    24   6 C    3.994 --    22 C    0.996    55 H    0.985    57 H    0.983
                            56 H    0.982
    25   8 O    2.235 --    17 B    1.132    22 C    0.953
    26   6 C    3.988 --    16 C    1.830    27 C    1.019    58 H    0.967
    27   6 C    3.980 --    26 C    1.019    28 H    0.968    29 C    0.954
                            10 C    0.926
    28   1 H    0.998 --    27 C    0.968
    29   6 C    3.970 --    30 C    1.633    59 H    0.970    27 C    0.954
                            10 C    0.262
    30   6 C    3.979 --    29 C    1.633    31 C    1.181    60 H    0.966
                            11 C    0.110
    31   6 C    3.947 --    30 C    1.181    32 H    0.973    14 C    0.925
                            12 C    0.732
    32   1 H    0.999 --    31 C    0.973
    33   1 H    0.997 --     1 C    0.982
    34   1 H    0.998 --     1 C    0.984
    35   1 H    0.997 --     1 C    0.982
    36   1 H    0.997 --     4 C    0.983
    37   1 H    0.998 --     4 C    0.984
    38   1 H    0.998 --     4 C    0.984
    39   1 H    0.998 --     6 C    0.984
    40   1 H    0.997 --     6 C    0.982
    41   1 H    0.997 --     6 C    0.982
    42   1 H    0.998 --     7 C    0.984
    43   1 H    0.997 --     7 C    0.983
    44   1 H    0.998 --     7 C    0.984
    45   1 H    0.999 --    11 C    0.964
    46   1 H    0.997 --    20 C    0.983
    47   1 H    0.998 --    20 C    0.984
    48   1 H    0.997 --    20 C    0.982
    49   1 H    0.997 --    21 C    0.983
    50   1 H    0.998 --    21 C    0.984
    51   1 H    0.998 --    21 C    0.984
    52   1 H    0.998 --    23 C    0.984
    53   1 H    0.997 --    23 C    0.983
    54   1 H    0.998 --    23 C    0.984
    55   1 H    0.998 --    24 C    0.985
    56   1 H    0.997 --    24 C    0.982
    57   1 H    0.997 --    24 C    0.983
    58   1 H    0.999 --    26 C    0.967
    59   1 H    0.999 --    29 C    0.970
    60   1 H    0.999 --    30 C    0.966
 ---------------------------------------------------------------------------

molecular dipole:
                 x           y           z       tot (Debye)
 q only:       -0.221      -0.468       0.079
   full:       -0.108      -0.536       0.014       1.390

           -------------------------------------------------
          | TOTAL ENERGY              -82.304402571349 Eh   |
          | GRADIENT NORM               0.000310181116 Eh/α |
          | HOMO-LUMO GAP               2.891776369962 eV   |
           -------------------------------------------------

 * finished run on 2022/07/09 at 18:33:10.762
