   * xtb version 6.5.0 (homebrew) compiled by 'nhattrup@GPGGRP-SHANNON.CHEME.CMU.EDU' on
          program call               : /opt/homebrew/bin/xtb bvl_bpin2_scan_4-8_xtb.xyz --chrg 0 --uhf 0 --opt --input xcontrol_bvl_bpin2_scan_4-8_xtb

   ID    Z sym.   atoms
    1    6 C      1, 2, 4-7, 10-12, 14, 16, 19-24, 26, 27, 29-31
    2    8 O      3, 8, 18, 25
    3    5 B      9, 17
    4    1 H      13, 15, 28, 32-60
constraining bond 12 31 to    1.9444000 Å, actual value:    1.8345701 Å
constraining bond 10 29 to    1.6111000 Å, actual value:    1.7219317 Å

          :  Hamiltonian                  GFN2-xTB          :
 * total energy  :   -82.1259537 Eh     change       -0.8389094E-09 Eh
 * total energy  :   -82.2597091 Eh     change       -0.1337554E+00 Eh
 * total energy  :   -82.3022198 Eh     change       -0.4251064E-01 Eh
 * total energy  :   -82.3029837 Eh     change       -0.7639756E-03 Eh
 * total energy  :   -82.3032505 Eh     change       -0.2667973E-03 Eh
 * total energy  :   -82.2979765 Eh     change        0.5274014E-02 Eh
 * total energy  :   -82.3036694 Eh     change       -0.5692873E-02 Eh
 * total energy  :   -82.3037870 Eh     change       -0.1176531E-03 Eh
 * total energy  :   -82.3038631 Eh     change       -0.7602135E-04 Eh
 * total energy  :   -82.3040021 Eh     change       -0.1389947E-03 Eh
 * total energy  :   -82.3040144 Eh     change       -0.1239283E-04 Eh
 * total energy  :   -82.3040275 Eh     change       -0.1302879E-04 Eh
 * total energy  :   -82.3040333 Eh     change       -0.5801117E-05 Eh
 * total energy  :   -82.3040455 Eh     change       -0.1224319E-04 Eh
 * total energy  :   -82.3040493 Eh     change       -0.3804395E-05 Eh
 * total energy  :   -82.3040562 Eh     change       -0.6855649E-05 Eh
 * total energy  :   -82.3040587 Eh     change       -0.2557232E-05 Eh
 * total energy  :   -82.3040652 Eh     change       -0.6452590E-05 Eh
 * total energy  :   -82.3040681 Eh     change       -0.2922462E-05 Eh
   *** GEOMETRY OPTIMIZATION CONVERGED AFTER 19 ITERATIONS ***

 final structure:
================
60
 xtb: 6.5.0 (homebrew)
C            3.46506291778287      -37.76160918822559       15.91456745168242
C            3.71439672524479      -38.13594758494867       17.37385757776988
O            3.24990894652518      -37.08136135940937       18.21755755698183
C            2.88927940697216      -39.38155402625078       17.72004098911679
C            5.22869174790829      -38.27196603029861       17.77639111879650
C            5.73634952495386      -39.70617168897082       17.90494911641428
C            6.16633562343501      -37.48746595975089       16.85047099209141
O            5.28280053554651      -37.63498474935871       19.05451039189103
B            4.15369368454898      -36.89029704677380       19.22544957016894
C            3.90537643339435      -35.92087686819027       20.43204121304085
C            4.93932109371195      -35.86008705510312       21.43850292813367
C            4.96584435378694      -35.03259531788959       22.51054557731081
H            5.89220381868588      -34.98270177517139       23.07200524252453
C            3.83202868330215      -34.25449190888818       23.07612143610664
H            4.06518990604462      -33.85785736595885       24.06254769779319
C            2.46682529161006      -34.87320619043496       23.11431561533071
B            1.71969951929498      -34.88777576366270       24.48133195370283
O            2.22374914133778      -34.37704750846166       25.64700708985190
C            1.35431645735221      -34.73832484970205       26.71937814828396
C            1.20617217326319      -33.56015527987739       27.67944377365252
C            2.02040553966018      -35.90652527380471       27.45789351729538
C            0.03278350511231      -35.15934933380787       25.97955866719953
C           -0.98494680869085      -34.01602966436301       25.87701760880684
C           -0.66024127362472      -36.39512100508311       26.54931193110551
O            0.47933170053048      -35.43751464314530       24.65397884117916
C            1.89742851685290      -35.43835573669040       22.04704656212447
C            2.45119675249582      -35.55387786105171       20.69501903328352
H            1.77588915020322      -36.04741188797574       20.00495875012474
C            3.27548967384361      -34.48999740288022       20.04232837757042
C            3.85302625087730      -33.34976814506251       20.69384741587174
C            4.21767273040739      -33.30839009714149       21.99906704417785
H            4.80074082504378      -32.45286755850295       22.32087203299700
H            2.39261639730327      -37.70635018786581       15.74451368433208
H            3.88722514772912      -38.51514593366056       15.25550319136617
H            3.89264956638054      -36.79253154562431       15.67855695311278
H            1.83716303885377      -39.15373916470435       17.56480174444488
H            3.02499866323579      -39.64487167239411       18.76594794777774
H            3.16510478573048      -40.22167591318887       17.08987985196025
H            5.62898361843287      -40.23045798887327       16.95928014944634
H            5.20162456833997      -40.24354542966292       18.68126589784379
H            6.78863630410081      -39.68253161943439       18.17686503142371
H            6.20588968163164      -37.93365868623634       15.86141959349715
H            7.16395377461263      -37.49546312445892       17.28329120956069
H            5.84241998875606      -36.45245193153239       16.77547377105902
H            5.85621684808850      -36.36285337231519       21.16068029589855
H            2.16666047459461      -33.36472829582672       28.14989030625607
H            0.47847733188859      -33.79572739062699       28.45145120561311
H            0.89955942274713      -32.66135595191865       27.15441845261788
H            3.00140106140087      -35.58510660064547       27.80041478480780
H            2.15977516728123      -36.74672991796736       26.78224163236221
H            1.43071742337312      -36.21658765870308       28.31538013174229
H           -1.40535097519980      -33.77498065688845       26.84875555712707
H           -1.78641256437505      -34.32816045000652       25.21138647311049
H           -0.51751888451724      -33.13368121662952       25.44725928459768
H           -0.93048145746148      -36.23085908782744       27.58886468536360
H           -0.02403672004390      -37.27082751865147       26.47268257903243
H           -1.56418516814404      -36.58525038851015       25.97601817618164
H            0.91480187946832      -35.87284022546511       22.17556210337946
H            3.10110377060842      -34.37360385204509       18.97993614819448
H            4.23562430777055      -32.57969809150013       20.03605393550977

          :  Hamiltonian                  GFN2-xTB          :
         :: total energy             -82.304068115148 Eh    ::
         :: gradient norm              0.000861018850 Eh/a0 ::
         :: HOMO-LUMO gap              2.904014311890 eV    ::
         :: SCC energy               -83.384655357650 Eh    ::
         :: -> dispersion             -0.061254948479 Eh    ::
         :: repulsion energy           1.079860945028 Eh    ::

    * Orbital Energies and Occupations

         #    Occupation            Energy/Eh            Energy/eV
      -------------------------------------------------------------
         1        2.0000           -0.6931547             -18.8617
       ...           ...                  ...                  ...
        63        2.0000           -0.4367084             -11.8834
        64        2.0000           -0.4355663             -11.8524
        65        2.0000           -0.4295188             -11.6878
        66        2.0000           -0.4236534             -11.5282
        67        2.0000           -0.4183611             -11.3842
        68        2.0000           -0.4123114             -11.2196
        69        2.0000           -0.4063109             -11.0563
        70        2.0000           -0.4014498             -10.9240
        71        2.0000           -0.3979732             -10.8294
        72        2.0000           -0.3949730             -10.7478
        73        2.0000           -0.3794256             -10.3247
        74        2.0000           -0.3664114              -9.9706
        75        2.0000           -0.3302117              -8.9855 (HOMO)
        76                         -0.2234911              -6.0815 (LUMO)
        77                         -0.2038306              -5.5465
        78                         -0.1604131              -4.3651
        79                         -0.1293423              -3.5196
        80                         -0.0949482              -2.5837
        81                          0.0021493               0.0585
        82                          0.0096180               0.2617
        83                          0.0115623               0.3146
        84                          0.0247708               0.6740
        85                          0.0307003               0.8354
        86                          0.0534578               1.4547
       ...                                ...                  ...
       144                          0.6938203              18.8798
      -------------------------------------------------------------
                  HL-Gap            0.1067206 Eh            2.9040 eV

     #   Z          covCN         q      C6AA      α(0)
     1   6 C        3.755    -0.117    22.803     6.809
     2   6 C        3.858     0.130    18.446     6.108
     3   8 O        1.638    -0.376    20.408     6.098
     4   6 C        3.755    -0.117    22.789     6.807
     5   6 C        3.859     0.129    18.453     6.109
     6   6 C        3.755    -0.118    22.816     6.811
     7   6 C        3.755    -0.116    22.783     6.806
     8   8 O        1.638    -0.370    20.282     6.079
     9   5 B        2.657     0.440    15.474     6.625
    10   6 C        3.822    -0.058    21.601     6.614
    11   6 C        2.891    -0.060    29.498     8.905
    12   6 C        3.486    -0.017    22.740     7.112
    13   1 H        0.925     0.025     2.652     2.547
    14   6 C        3.866    -0.017    20.835     6.491
    15   1 H        0.925     0.043     2.405     2.425
    16   6 C        2.864    -0.086    30.142     8.999
    17   5 B        2.662     0.431    15.558     6.639
    18   8 O        1.638    -0.373    20.333     6.087
    19   6 C        3.860     0.129    18.453     6.109
    20   6 C        3.755    -0.117    22.794     6.808
    21   6 C        3.755    -0.116    22.773     6.804
    22   6 C        3.860     0.129    18.452     6.109
    23   6 C        3.755    -0.116    22.780     6.805
    24   6 C        3.755    -0.117    22.801     6.809
    25   8 O        1.638    -0.373    20.336     6.087
    26   6 C        2.896    -0.026    28.652     8.776
    27   6 C        3.861    -0.017    20.838     6.492
    28   1 H        0.925     0.041     2.436     2.440
    29   6 C        3.852    -0.006    20.642     6.462
    30   6 C        2.889    -0.061    29.524     8.908
    31   6 C        3.488    -0.014    22.668     7.096
    32   1 H        0.925     0.026     2.647     2.544
    33   1 H        0.925     0.055     2.256     2.349
    34   1 H        0.925     0.041     2.440     2.443
    35   1 H        0.925     0.052     2.297     2.370
    36   1 H        0.925     0.053     2.284     2.363
    37   1 H        0.925     0.044     2.391     2.418
    38   1 H        0.925     0.043     2.404     2.425
    39   1 H        0.925     0.041     2.435     2.440
    40   1 H        0.925     0.053     2.284     2.363
    41   1 H        0.925     0.056     2.250     2.346
    42   1 H        0.925     0.044     2.400     2.423
    43   1 H        0.925     0.053     2.277     2.360
    44   1 H        0.925     0.044     2.401     2.423
    45   1 H        0.925     0.030     2.588     2.516
    46   1 H        0.925     0.054     2.273     2.358
    47   1 H        0.925     0.039     2.459     2.452
    48   1 H        0.925     0.052     2.298     2.370
    49   1 H        0.925     0.052     2.299     2.371
    50   1 H        0.925     0.044     2.402     2.424
    51   1 H        0.925     0.042     2.424     2.435
    52   1 H        0.925     0.042     2.421     2.433
    53   1 H        0.925     0.052     2.295     2.369
    54   1 H        0.925     0.044     2.400     2.422
    55   1 H        0.925     0.039     2.457     2.451
    56   1 H        0.925     0.052     2.298     2.370
    57   1 H        0.925     0.054     2.270     2.356
    58   1 H        0.925     0.038     2.478     2.462
    59   1 H        0.925     0.034     2.536     2.490
    60   1 H        0.925     0.019     2.749     2.593

Wiberg/Mayer (AO) data.
largest (>0.10) Wiberg bond orders for each atom

     #   Z sym  total        # sym  WBO       # sym  WBO       # sym  WBO
 ---------------------------------------------------------------------------
     1   6 C    3.994 --     2 C    0.997    34 H    0.984    33 H    0.982
                            35 H    0.982
     2   6 C    3.942 --     1 C    0.997     4 C    0.991     3 O    0.950
                             5 C    0.937
     3   8 O    2.228 --     9 B    1.129     2 C    0.950
     4   6 C    3.994 --     2 C    0.991    38 H    0.984    37 H    0.984
                            36 H    0.983
     5   6 C    3.941 --     6 C    0.997     7 C    0.991     8 O    0.949
                             2 C    0.937
     6   6 C    3.994 --     5 C    0.997    39 H    0.984    41 H    0.982
                            40 H    0.982
     7   6 C    3.995 --     5 C    0.991    42 H    0.984    44 H    0.984
                            43 H    0.983
     8   8 O    2.237 --     9 B    1.140     5 C    0.949
     9   5 B    3.376 --     8 O    1.140     3 O    1.129    10 C    0.992
    10   6 C    3.931 --    11 C    1.164     9 B    0.992    27 C    0.872
                            29 C    0.722
    11   6 C    3.984 --    12 C    1.653    10 C    1.164    45 H    0.964
                            30 C    0.107
    12   6 C    3.974 --    11 C    1.653    13 H    0.970    14 C    0.950
                            31 C    0.261
    13   1 H    0.999 --    12 C    0.970
    14   6 C    3.980 --    16 C    0.995    15 H    0.969    31 C    0.958
                            12 C    0.950
    15   1 H    0.998 --    14 C    0.969
    16   6 C    3.977 --    26 C    1.819    17 B    1.004    14 C    0.995
    17   5 B    3.376 --    25 O    1.127    18 O    1.125    16 C    1.004
    18   8 O    2.231 --    17 B    1.125    19 C    0.953
    19   6 C    3.943 --    20 C    0.997    21 C    0.991    18 O    0.953
                            22 C    0.936
    20   6 C    3.994 --    19 C    0.997    47 H    0.985    46 H    0.983
                            48 H    0.982
    21   6 C    3.994 --    19 C    0.991    51 H    0.984    50 H    0.984
                            49 H    0.983
    22   6 C    3.943 --    24 C    0.996    23 C    0.990    25 O    0.954
                            19 C    0.936
    23   6 C    3.995 --    22 C    0.990    52 H    0.985    54 H    0.984
                            53 H    0.983
    24   6 C    3.994 --    22 C    0.996    55 H    0.985    57 H    0.983
                            56 H    0.982
    25   8 O    2.231 --    17 B    1.127    22 C    0.954
    26   6 C    3.989 --    16 C    1.819    27 C    1.058    58 H    0.965
    27   6 C    3.953 --    26 C    1.058    28 H    0.969    29 C    0.923
                            10 C    0.872
    28   1 H    0.998 --    27 C    0.969
    29   6 C    3.949 --    30 C    1.178    59 H    0.972    27 C    0.923
                            10 C    0.722
    30   6 C    3.978 --    31 C    1.639    29 C    1.178    60 H    0.966
                            11 C    0.107
    31   6 C    3.969 --    30 C    1.639    32 H    0.970    14 C    0.958
                            12 C    0.261
    32   1 H    0.999 --    31 C    0.970
    33   1 H    0.997 --     1 C    0.982
    34   1 H    0.998 --     1 C    0.984
    35   1 H    0.997 --     1 C    0.982
    36   1 H    0.997 --     4 C    0.983
    37   1 H    0.998 --     4 C    0.984
    38   1 H    0.998 --     4 C    0.984
    39   1 H    0.998 --     6 C    0.984
    40   1 H    0.997 --     6 C    0.982
    41   1 H    0.997 --     6 C    0.982
    42   1 H    0.998 --     7 C    0.984
    43   1 H    0.997 --     7 C    0.983
    44   1 H    0.998 --     7 C    0.984
    45   1 H    0.999 --    11 C    0.964
    46   1 H    0.997 --    20 C    0.983
    47   1 H    0.998 --    20 C    0.985
    48   1 H    0.997 --    20 C    0.982
    49   1 H    0.997 --    21 C    0.983
    50   1 H    0.998 --    21 C    0.984
    51   1 H    0.998 --    21 C    0.984
    52   1 H    0.998 --    23 C    0.985
    53   1 H    0.997 --    23 C    0.983
    54   1 H    0.998 --    23 C    0.984
    55   1 H    0.998 --    24 C    0.985
    56   1 H    0.997 --    24 C    0.982
    57   1 H    0.997 --    24 C    0.983
    58   1 H    0.998 --    26 C    0.965
    59   1 H    0.998 --    29 C    0.972
    60   1 H    0.999 --    30 C    0.966
 ---------------------------------------------------------------------------

molecular dipole:
                 x           y           z       tot (Debye)
 q only:       -0.235      -0.574      -0.116
   full:       -0.163      -0.649      -0.175       1.759

           -------------------------------------------------
          | TOTAL ENERGY              -82.304068115148 Eh   |
          | GRADIENT NORM               0.000861018850 Eh/α |
          | HOMO-LUMO GAP               2.904014311890 eV   |
           -------------------------------------------------

 * finished run on 2022/07/09 at 18:33:34.705
