   * xtb version 6.5.0 (homebrew) compiled by 'nhattrup@GPGGRP-SHANNON.CHEME.CMU.EDU' on
          program call               : /opt/homebrew/bin/xtb bvl_bpin2_scan_1-0_xtb.xyz --chrg 0 --uhf 0 --opt --input xcontrol_bvl_bpin2_scan_1-0_xtb

   ID    Z sym.   atoms
    1    6 C      1, 2, 4-7, 10-12, 14, 16, 19-24, 26, 27, 29-31
    2    8 O      3, 8, 18, 25
    3    5 B      9, 17
    4    1 H      13, 15, 28, 32-60
constraining bond 12 31 to    1.6111000 Å, actual value:    1.5013715 Å
constraining bond 10 29 to    2.5000000 Å, actual value:    2.4997804 Å

          :  Hamiltonian                  GFN2-xTB          :
 * total energy  :   -82.2361162 Eh     change       -0.1270323E-08 Eh
 * total energy  :   -82.2861999 Eh     change       -0.5008367E-01 Eh
 * total energy  :   -82.3191514 Eh     change       -0.3295152E-01 Eh
 * total energy  :   -82.3193811 Eh     change       -0.2296396E-03 Eh
 * total energy  :   -82.3192431 Eh     change        0.1379164E-03 Eh
 * total energy  :   -82.3189561 Eh     change        0.2870435E-03 Eh
 * total energy  :   -82.3195107 Eh     change       -0.5545992E-03 Eh
 * total energy  :   -82.3195334 Eh     change       -0.2267528E-04 Eh
 * total energy  :   -82.3195413 Eh     change       -0.7911254E-05 Eh
 * total energy  :   -82.3195597 Eh     change       -0.1838703E-04 Eh
 * total energy  :   -82.3195663 Eh     change       -0.6619476E-05 Eh
 * total energy  :   -82.3195749 Eh     change       -0.8631945E-05 Eh
 * total energy  :   -82.3195794 Eh     change       -0.4498631E-05 Eh
 * total energy  :   -82.3195874 Eh     change       -0.7972309E-05 Eh
 * total energy  :   -82.3195906 Eh     change       -0.3200447E-05 Eh
 * total energy  :   -82.3195943 Eh     change       -0.3759415E-05 Eh
 * total energy  :   -82.3195974 Eh     change       -0.3025123E-05 Eh
 * total energy  :   -82.3196019 Eh     change       -0.4505890E-05 Eh
   *** GEOMETRY OPTIMIZATION CONVERGED AFTER 18 ITERATIONS ***

 final structure:
================
60
 xtb: 6.5.0 (homebrew)
C            3.41565869719399      -38.10646511362663       16.17056223497432
C            3.62418316110865      -38.27661154443638       17.67436477241979
O            3.23496180854713      -37.07970720218004       18.34495033594786
C            2.70251859595742      -39.39252309967781       18.18301637920325
C            5.12251642186325      -38.46597196594798       18.11673167587378
C            5.51039913204598      -39.89817334731795       18.47995156150346
C            6.12591176300933      -37.92161837170756       17.09169070618445
O            5.22753855202043      -37.64087119912404       19.27526084937022
B            4.15388974714399      -36.79349809974190       19.31670871855098
C            4.00686772219752      -35.64276454484995       20.35311599779473
C            5.03311259789475      -35.33703149239718       21.16294329094139
C            5.08620320074961      -34.31760048370158       22.19382484915870
H            6.03875921314197      -34.23849165432733       22.70020535455987
C            3.88211385044045      -33.91273450227119       23.02649194267803
H            4.11684514639424      -33.66599777777112       24.05599416208722
C            2.58082632457098      -34.60443746838402       22.91788604131902
B            1.81689737788066      -34.85788064653595       24.25693133778396
O            2.35236319104008      -34.59860541702209       25.48946297408541
C            1.47089221246515      -35.11469748219252       26.48669834633426
C            1.40880868647117      -34.14534776538097       27.66437332944203
C            2.06599244041174      -36.44725343822689       26.95922650136222
C            0.12277878842003      -35.29747348179379       25.70206415013894
C           -0.80048482931748      -34.07817221648868       25.81959749668964
C           -0.66289207467388      -36.55866451354545       26.05168642708173
O            0.55065950340699      -35.36378505050831       24.34098586185793
C            2.06131107217201      -35.02438331456580       21.75715954719523
C            2.69155618193265      -34.87660356541966       20.40280930255368
H            2.02964728432087      -35.31451520477769       19.65326703352321
C            2.89921560165313      -33.42031991768550       20.06836744645977
C            3.63712029048393      -32.57944198750720       20.78659863235132
C            4.35729744427700      -32.89676741211352       22.01251156913967
H            4.93228265819865      -32.07646013062537       22.42097985329199
H            2.35242424786243      -37.99443731468849       15.97292203251685
H            3.78168070730726      -38.98062554558796       15.63885473312867
H            3.92076383204554      -37.21960946882855       15.80182656727813
H            1.67298888150551      -39.11232598832377       17.97193397990247
H            2.80548462184804      -39.50398650042894       19.25938727860264
H            2.91958835174357      -40.33639286935219       17.69192464301929
H            5.36671992824599      -40.55641297959313       17.62739443063408
H            4.92857483435535      -40.26019730601708       19.32128970920429
H            6.55934028168760      -39.91519093240662       18.76523369393524
H            6.12982509136801      -38.52134920839131       16.18654079974286
H            7.11816707737992      -37.94545658912266       17.53648941676249
H            5.89310819216049      -36.88790662673181       16.84912881647710
H            5.94135749838571      -35.91675467288665       21.04929387780871
H            2.38343283767208      -34.11232723703955       28.14515161480119
H            0.67096489941638      -34.48024505211905       28.38840688934662
H            1.16277638430567      -33.14154425907538       27.33358858207364
H            3.07287768586703      -36.26520399435992       27.32795716239056
H            2.13444989424472      -37.14221411799624       26.12592351905896
H            1.47068019186499      -36.88346514661347       27.75573281921947
H           -1.20457284525396      -33.98609974238903       26.82331152511708
H           -1.62102116110034      -34.19753134238407       25.11596102469072
H           -0.26052038203831      -33.17262200139604       25.55422159751378
H           -0.91166410717120      -36.56606202272727       27.10949186393636
H           -0.09886600760255      -37.45217905064877       25.80486266071303
H           -1.58331813751524      -36.57098401534415       25.47333910173548
H            1.10240543542596      -35.52337585536326       21.79248640087711
H            2.41997090522315      -33.06435587548972       19.16746808064646
H            3.74035909734584      -31.55323487284464       20.45327849700859

          :  Hamiltonian                  GFN2-xTB          :
         :: total energy             -82.319601879419 Eh    ::
         :: gradient norm              0.000610202036 Eh/a0 ::
         :: HOMO-LUMO gap              3.365601317652 eV    ::
         :: SCC energy               -83.396254346603 Eh    ::
         :: -> dispersion             -0.061122410241 Eh    ::
         :: repulsion energy           1.075729460832 Eh    ::

    * Orbital Energies and Occupations

         #    Occupation            Energy/Eh            Energy/eV
      -------------------------------------------------------------
         1        2.0000           -0.6883332             -18.7305
       ...           ...                  ...                  ...
        63        2.0000           -0.4373244             -11.9002
        64        2.0000           -0.4359399             -11.8625
        65        2.0000           -0.4256199             -11.5817
        66        2.0000           -0.4198123             -11.4237
        67        2.0000           -0.4185393             -11.3890
        68        2.0000           -0.4117003             -11.2029
        69        2.0000           -0.4059602             -11.0467
        70        2.0000           -0.3982948             -10.8382
        71        2.0000           -0.3963253             -10.7846
        72        2.0000           -0.3954202             -10.7599
        73        2.0000           -0.3891994             -10.5907
        74        2.0000           -0.3553423              -9.6694
        75        2.0000           -0.3467190              -9.4347 (HOMO)
        76                         -0.2230354              -6.0691 (LUMO)
        77                         -0.2153315              -5.8595
        78                         -0.1903292              -5.1791
        79                         -0.1026650              -2.7937
        80                         -0.0949104              -2.5826
        81                         -0.0090446              -0.2461
        82                          0.0081498               0.2218
        83                          0.0117998               0.3211
        84                          0.0290964               0.7918
        85                          0.0299343               0.8146
        86                          0.0567740               1.5449
       ...                                ...                  ...
       144                          0.6731125              18.3163
      -------------------------------------------------------------
                  HL-Gap            0.1236836 Eh            3.3656 eV

     #   Z          covCN         q      C6AA      α(0)
     1   6 C        3.755    -0.117    22.794     6.807
     2   6 C        3.857     0.129    18.457     6.110
     3   8 O        1.638    -0.371    20.298     6.082
     4   6 C        3.755    -0.116    22.769     6.804
     5   6 C        3.857     0.129    18.454     6.109
     6   6 C        3.755    -0.117    22.797     6.808
     7   6 C        3.755    -0.116    22.774     6.805
     8   8 O        1.638    -0.374    20.360     6.091
     9   5 B        2.657     0.431    15.580     6.647
    10   6 C        2.870    -0.087    30.167     9.003
    11   6 C        2.895    -0.028    28.706     8.784
    12   6 C        3.847    -0.018    20.859     6.497
    13   1 H        0.925     0.032     2.564     2.504
    14   6 C        3.863    -0.013    20.759     6.479
    15   1 H        0.925     0.043     2.406     2.426
    16   6 C        2.863    -0.086    30.161     9.002
    17   5 B        2.665     0.433    15.533     6.632
    18   8 O        1.638    -0.374    20.366     6.092
    19   6 C        3.861     0.129    18.450     6.109
    20   6 C        3.755    -0.117    22.800     6.808
    21   6 C        3.755    -0.116    22.781     6.806
    22   6 C        3.862     0.129    18.451     6.109
    23   6 C        3.755    -0.116    22.786     6.806
    24   6 C        3.755    -0.118    22.806     6.809
    25   8 O        1.638    -0.371    20.301     6.082
    26   6 C        2.904    -0.026    28.659     8.778
    27   6 C        3.863    -0.017    20.835     6.491
    28   1 H        0.924     0.044     2.396     2.420
    29   6 C        2.897    -0.036    28.884     8.812
    30   6 C        2.889    -0.036    28.899     8.814
    31   6 C        3.849    -0.016    20.834     6.492
    32   1 H        0.925     0.031     2.577     2.510
    33   1 H        0.925     0.054     2.271     2.357
    34   1 H        0.925     0.039     2.460     2.453
    35   1 H        0.925     0.051     2.304     2.374
    36   1 H        0.925     0.052     2.295     2.369
    37   1 H        0.925     0.043     2.404     2.425
    38   1 H        0.925     0.042     2.426     2.436
    39   1 H        0.925     0.039     2.456     2.451
    40   1 H        0.925     0.051     2.303     2.373
    41   1 H        0.925     0.054     2.273     2.358
    42   1 H        0.925     0.042     2.421     2.433
    43   1 H        0.925     0.052     2.299     2.371
    44   1 H        0.925     0.043     2.403     2.424
    45   1 H        0.925     0.036     2.506     2.475
    46   1 H        0.925     0.054     2.267     2.354
    47   1 H        0.925     0.040     2.450     2.448
    48   1 H        0.925     0.052     2.292     2.367
    49   1 H        0.925     0.052     2.294     2.369
    50   1 H        0.925     0.044     2.402     2.423
    51   1 H        0.925     0.043     2.414     2.429
    52   1 H        0.925     0.043     2.410     2.428
    53   1 H        0.925     0.053     2.286     2.364
    54   1 H        0.925     0.044     2.400     2.423
    55   1 H        0.925     0.040     2.448     2.447
    56   1 H        0.925     0.052     2.290     2.367
    57   1 H        0.925     0.055     2.259     2.351
    58   1 H        0.925     0.036     2.509     2.477
    59   1 H        0.926     0.026     2.640     2.541
    60   1 H        0.925     0.024     2.671     2.556

Wiberg/Mayer (AO) data.
largest (>0.10) Wiberg bond orders for each atom

     #   Z sym  total        # sym  WBO       # sym  WBO       # sym  WBO
 ---------------------------------------------------------------------------
     1   6 C    3.994 --     2 C    0.996    34 H    0.985    33 H    0.983
                            35 H    0.982
     2   6 C    3.943 --     1 C    0.996     4 C    0.991     3 O    0.955
                             5 C    0.936
     3   8 O    2.233 --     9 B    1.127     2 C    0.955
     4   6 C    3.994 --     2 C    0.991    38 H    0.984    37 H    0.984
                            36 H    0.983
     5   6 C    3.943 --     6 C    0.996     7 C    0.990     8 O    0.955
                             2 C    0.936
     6   6 C    3.994 --     5 C    0.996    39 H    0.985    41 H    0.983
                            40 H    0.982
     7   6 C    3.995 --     5 C    0.990    42 H    0.984    44 H    0.984
                            43 H    0.983
     8   8 O    2.229 --     9 B    1.124     5 C    0.955
     9   5 B    3.378 --     3 O    1.127     8 O    1.124    10 C    1.007
    10   6 C    3.975 --    11 C    1.778     9 B    1.007    27 C    0.963
    11   6 C    3.989 --    10 C    1.778    12 C    1.112    45 H    0.963
    12   6 C    3.944 --    11 C    1.112    13 H    0.974    14 C    0.898
                            31 C    0.830
    13   1 H    0.999 --    12 C    0.974
    14   6 C    3.957 --    16 C    1.051    15 H    0.968    31 C    0.916
                            12 C    0.898
    15   1 H    0.998 --    14 C    0.968
    16   6 C    3.978 --    26 C    1.809    14 C    1.051    17 B    0.996
    17   5 B    3.374 --    25 O    1.133    18 O    1.127    16 C    0.996
    18   8 O    2.231 --    17 B    1.127    19 C    0.952
    19   6 C    3.943 --    20 C    0.997    21 C    0.991    18 O    0.952
                            22 C    0.937
    20   6 C    3.994 --    19 C    0.997    47 H    0.984    46 H    0.983
                            48 H    0.982
    21   6 C    3.994 --    19 C    0.991    51 H    0.984    50 H    0.984
                            49 H    0.983
    22   6 C    3.942 --    24 C    0.997    23 C    0.991    25 O    0.951
                            19 C    0.937
    23   6 C    3.995 --    22 C    0.991    52 H    0.984    54 H    0.984
                            53 H    0.983
    24   6 C    3.994 --    22 C    0.997    55 H    0.984    57 H    0.983
                            56 H    0.982
    25   8 O    2.236 --    17 B    1.133    22 C    0.951
    26   6 C    3.986 --    16 C    1.809    27 C    0.993    58 H    0.968
    27   6 C    3.995 --    26 C    0.993    29 C    0.983    28 H    0.972
                            10 C    0.963
    28   1 H    0.998 --    27 C    0.972
    29   6 C    3.989 --    30 C    1.856    27 C    0.983    59 H    0.970
    30   6 C    3.991 --    29 C    1.856    31 C    1.092    60 H    0.965
    31   6 C    3.940 --    30 C    1.092    32 H    0.974    14 C    0.916
                            12 C    0.830
    32   1 H    0.999 --    31 C    0.974
    33   1 H    0.997 --     1 C    0.983
    34   1 H    0.998 --     1 C    0.985
    35   1 H    0.997 --     1 C    0.982
    36   1 H    0.997 --     4 C    0.983
    37   1 H    0.998 --     4 C    0.984
    38   1 H    0.998 --     4 C    0.984
    39   1 H    0.998 --     6 C    0.985
    40   1 H    0.997 --     6 C    0.982
    41   1 H    0.997 --     6 C    0.983
    42   1 H    0.998 --     7 C    0.984
    43   1 H    0.997 --     7 C    0.983
    44   1 H    0.998 --     7 C    0.984
    45   1 H    0.999 --    11 C    0.963
    46   1 H    0.997 --    20 C    0.983
    47   1 H    0.998 --    20 C    0.984
    48   1 H    0.997 --    20 C    0.982
    49   1 H    0.997 --    21 C    0.983
    50   1 H    0.998 --    21 C    0.984
    51   1 H    0.998 --    21 C    0.984
    52   1 H    0.998 --    23 C    0.984
    53   1 H    0.997 --    23 C    0.983
    54   1 H    0.998 --    23 C    0.984
    55   1 H    0.998 --    24 C    0.984
    56   1 H    0.997 --    24 C    0.982
    57   1 H    0.997 --    24 C    0.983
    58   1 H    0.999 --    26 C    0.968
    59   1 H    0.999 --    29 C    0.970
    60   1 H    0.999 --    30 C    0.965
 ---------------------------------------------------------------------------

molecular dipole:
                 x           y           z       tot (Debye)
 q only:       -0.210      -0.534       0.290
   full:       -0.186      -0.654       0.341       1.933

           -------------------------------------------------
          | TOTAL ENERGY              -82.319601879419 Eh   |
          | GRADIENT NORM               0.000610202036 Eh/α |
          | HOMO-LUMO GAP               3.365601317652 eV   |
           -------------------------------------------------

 * finished run on 2022/07/09 at 18:32:53.539
