   * xtb version 6.5.0 (homebrew) compiled by 'nhattrup@GPGGRP-SHANNON.CHEME.CMU.EDU' on
          program call               : /opt/homebrew/bin/xtb bvl_bpin2_scan_8-9_xtb.xyz --chrg 0 --uhf 0 --opt --input xcontrol_bvl_bpin2_scan_8-9_xtb

   ID    Z sym.   atoms
    1    6 C      1, 2, 4-7, 10-12, 14, 16, 19-24, 26, 27, 29-31
    2    8 O      3, 8, 18, 25
    3    5 B      9, 17
    4    1 H      13, 15, 28, 32-60
constraining bond 12 31 to    2.3889000 Å, actual value:    2.2797568 Å
constraining bond 10 29 to    1.5000000 Å, actual value:    1.6086953 Å

          :  Hamiltonian                  GFN2-xTB          :
 * total energy  :   -82.1493031 Eh     change       -0.1336943E-08 Eh
 * total energy  :   -82.2692944 Eh     change       -0.1199913E+00 Eh
 * total energy  :   -82.3191928 Eh     change       -0.4989836E-01 Eh
 * total energy  :   -82.3197704 Eh     change       -0.5776851E-03 Eh
 * total energy  :   -82.3202703 Eh     change       -0.4998182E-03 Eh
 * total energy  :   -82.3170726 Eh     change        0.3197707E-02 Eh
 * total energy  :   -82.3206824 Eh     change       -0.3609846E-02 Eh
 * total energy  :   -82.3208793 Eh     change       -0.1969116E-03 Eh
 * total energy  :   -82.3212724 Eh     change       -0.3930543E-03 Eh
 * total energy  :   -82.3214729 Eh     change       -0.2005202E-03 Eh
 * total energy  :   -82.3216395 Eh     change       -0.6980875E-04 Eh
 * total energy  :   -82.3216970 Eh     change       -0.5755300E-04 Eh
 * total energy  :   -82.3217294 Eh     change       -0.3233718E-04 Eh
 * total energy  :   -82.3217493 Eh     change       -0.1993091E-04 Eh
 * total energy  :   -82.3217649 Eh     change       -0.1557563E-04 Eh
 * total energy  :   -82.3217793 Eh     change       -0.1441636E-04 Eh
 * total energy  :   -82.3217902 Eh     change       -0.1092179E-04 Eh
 * total energy  :   -82.3217979 Eh     change       -0.7685414E-05 Eh
 * total energy  :   -82.3218019 Eh     change       -0.4020200E-05 Eh
   *** GEOMETRY OPTIMIZATION CONVERGED AFTER 20 ITERATIONS ***

 final structure:
================
60
 xtb: 6.5.0 (homebrew)
C            3.53905793607438      -37.74050156532415       15.85130615695056
C            3.75133482199433      -38.09844209477320       17.31985022104711
O            3.30609497899817      -37.01827589063733       18.14315539736029
C            2.88639962799690      -39.31489621910572       17.67275822437282
C            5.25108808292138      -38.27312036137018       17.75275433750654
C            5.72976156723036      -39.71853607199566       17.85834525016812
C            6.22002567716552      -37.48152328884935       16.86600529600114
O            5.28396307271696      -37.66283897049776       19.04543321241697
B            4.18242204763726      -36.87056610627722       19.18294465933118
C            3.93216108584623      -35.89254380313399       20.38688545214875
C            4.90476430051363      -35.99144450849390       21.48950519703790
C            4.90402461610485      -35.31325624100169       22.63270917121660
H            5.70324075142002      -35.49826369328570       23.33917528266934
C            3.87876259199413      -34.30316193164830       23.04270016128782
H            4.11926832741549      -33.91500696031516       24.03387681993648
C            2.49718934163705      -34.92108891148854       23.10902671170625
B            1.75208360906117      -34.91501795376157       24.47649531798100
O            2.26136617536635      -34.37415754919770       25.62607911061131
C            1.39594770373996      -34.70168287724425       26.71148440323202
C            1.25636806149783      -33.49550124530590       27.63751267007470
C            2.06173973665654      -35.85047425973247       27.48024972827903
C            0.07013274853176      -35.14002127675050       25.98989380855950
C           -0.94563108864280      -33.99756050239657       25.85977287460780
C           -0.62526905002739      -36.35314249171781       26.60415920285448
O            0.51061406619717      -35.45854527501250       24.67084096597317
C            1.92228146116333      -35.48716190643454       22.03827261617704
C            2.45153150568743      -35.60229676822441       20.68523363771650
H            1.77707159168927      -36.09228767264894       19.99379336622888
C            3.33112960173231      -34.55898991267349       20.04485637853459
C            3.72514958641490      -33.32872220208750       20.73707936791940
C            3.96249593721613      -33.19841194163430       22.03870820141312
H            4.25356464494294      -32.22575944698828       22.41452392692301
H            2.47182255188904      -37.66471764972803       15.65808530582272
H            3.95798906811802      -38.51311557441246       15.21240461766799
H            3.99318108114869      -36.78498063312460       15.60991195398799
H            1.84252532783718      -39.05716155502026       17.50886606029999
H            3.00881566976555      -39.57147464312605       18.72215141546429
H            3.14042856866315      -40.16947188675120       17.05288254866995
H            5.62093539537288      -40.22175019658264       16.90134056374522
H            5.17633278276351      -40.26058232316099       18.61818615460264
H            6.77976818771302      -39.72197713957155       18.13992409755150
H            6.28591164896862      -37.91321436903746       15.87189529902913
H            7.20445772780921      -37.50095589145196       17.32767799094835
H            5.90278965823692      -36.44384482859489       16.79740190982631
H            5.70291713506286      -36.69690138052005       21.29753700868705
H            2.22121936918867      -33.28709876964155       28.09324583653288
H            0.53543634254288      -33.70708098606878       28.42273775649697
H            0.94575538641184      -32.61245997308773       27.08859424159541
H            3.04836418497328      -35.52493630884031       27.80205481453194
H            2.18832234314130      -36.71270147613932       26.83029917490206
H            1.47921578503424      -36.12920264289903       28.35327863224348
H           -1.35514549180405      -33.72454500935165       26.82777659301300
H           -1.75521357700749      -34.32890643178764       25.21349062816293
H           -0.48103034133988      -33.13054117798373       25.39709684518674
H           -0.88345291975741      -36.15248641808070       27.64052581005954
H            0.00361807394816      -37.23572978127665       26.55063344728781
H           -1.53686981249098      -36.55526566499318       26.04736256227461
H            0.93838213750370      -35.91820966706756       22.17643241003239
H            3.14205216244358      -34.41171949532479       18.98701003376140
H            3.83508643496986      -32.46262822636690       20.09563915937237

          :  Hamiltonian                  GFN2-xTB          :
         :: total energy             -82.321801913066 Eh    ::
         :: gradient norm              0.000821550992 Eh/a0 ::
         :: HOMO-LUMO gap              3.477950221952 eV    ::
         :: SCC energy               -83.408490639040 Eh    ::
         :: -> dispersion             -0.062056592512 Eh    ::
         :: repulsion energy           1.085975655471 Eh    ::

    * Orbital Energies and Occupations

         #    Occupation            Energy/Eh            Energy/eV
      -------------------------------------------------------------
         1        2.0000           -0.6940475             -18.8860
       ...           ...                  ...                  ...
        63        2.0000           -0.4365210             -11.8783
        64        2.0000           -0.4352738             -11.8444
        65        2.0000           -0.4310204             -11.7287
        66        2.0000           -0.4243444             -11.5470
        67        2.0000           -0.4180956             -11.3770
        68        2.0000           -0.4109570             -11.1827
        69        2.0000           -0.4032083             -10.9719
        70        2.0000           -0.4002788             -10.8921
        71        2.0000           -0.3980424             -10.8313
        72        2.0000           -0.3946528             -10.7390
        73        2.0000           -0.3866192             -10.5204
        74        2.0000           -0.3531104              -9.6086
        75        2.0000           -0.3498165              -9.5190 (HOMO)
        76                         -0.2220042              -6.0410 (LUMO)
        77                         -0.1909137              -5.1950
        78                         -0.1841031              -5.0097
        79                         -0.1482043              -4.0328
        80                         -0.0935337              -2.5452
        81                          0.0003891               0.0106
        82                          0.0123045               0.3348
        83                          0.0192058               0.5226
        84                          0.0286260               0.7790
        85                          0.0313611               0.8534
        86                          0.0524903               1.4283
       ...                                ...                  ...
       144                          0.6738135              18.3354
      -------------------------------------------------------------
                  HL-Gap            0.1278123 Eh            3.4780 eV

     #   Z          covCN         q      C6AA      α(0)
     1   6 C        3.755    -0.118    22.807     6.809
     2   6 C        3.860     0.130    18.440     6.107
     3   8 O        1.638    -0.378    20.434     6.102
     4   6 C        3.755    -0.117    22.787     6.807
     5   6 C        3.862     0.129    18.449     6.108
     6   6 C        3.755    -0.118    22.815     6.811
     7   6 C        3.755    -0.117    22.788     6.807
     8   8 O        1.638    -0.370    20.294     6.081
     9   5 B        2.660     0.441    15.451     6.617
    10   6 C        3.833    -0.059    21.602     6.613
    11   6 C        2.891    -0.044    29.098     8.844
    12   6 C        2.910    -0.034    28.856     8.808
    13   1 H        0.925     0.024     2.678     2.559
    14   6 C        3.866    -0.016    20.811     6.487
    15   1 H        0.924     0.043     2.413     2.429
    16   6 C        2.870    -0.086    30.146     9.000
    17   5 B        2.660     0.431    15.566     6.642
    18   8 O        1.638    -0.371    20.311     6.084
    19   6 C        3.859     0.129    18.453     6.109
    20   6 C        3.755    -0.117    22.791     6.807
    21   6 C        3.755    -0.116    22.768     6.804
    22   6 C        3.859     0.129    18.449     6.109
    23   6 C        3.755    -0.116    22.775     6.805
    24   6 C        3.755    -0.117    22.797     6.808
    25   8 O        1.638    -0.374    20.368     6.092
    26   6 C        2.895    -0.029    28.719     8.786
    27   6 C        3.860    -0.015    20.811     6.488
    28   1 H        0.925     0.039     2.460     2.453
    29   6 C        3.864    -0.006    20.652     6.462
    30   6 C        2.889    -0.040    28.981     8.826
    31   6 C        2.910    -0.032    28.791     8.799
    32   1 H        0.925     0.025     2.665     2.553
    33   1 H        0.925     0.055     2.255     2.348
    34   1 H        0.925     0.041     2.438     2.442
    35   1 H        0.925     0.052     2.289     2.366
    36   1 H        0.925     0.053     2.287     2.365
    37   1 H        0.925     0.044     2.393     2.419
    38   1 H        0.925     0.044     2.401     2.423
    39   1 H        0.925     0.041     2.435     2.440
    40   1 H        0.925     0.053     2.279     2.361
    41   1 H        0.925     0.056     2.248     2.345
    42   1 H        0.925     0.044     2.398     2.421
    43   1 H        0.925     0.054     2.274     2.358
    44   1 H        0.925     0.044     2.400     2.422
    45   1 H        0.925     0.033     2.547     2.496
    46   1 H        0.925     0.054     2.272     2.357
    47   1 H        0.925     0.039     2.464     2.455
    48   1 H        0.925     0.052     2.300     2.372
    49   1 H        0.925     0.052     2.298     2.371
    50   1 H        0.925     0.043     2.406     2.426
    51   1 H        0.925     0.042     2.428     2.437
    52   1 H        0.925     0.042     2.421     2.433
    53   1 H        0.925     0.052     2.300     2.372
    54   1 H        0.925     0.043     2.404     2.425
    55   1 H        0.925     0.039     2.458     2.452
    56   1 H        0.925     0.052     2.300     2.372
    57   1 H        0.925     0.054     2.275     2.359
    58   1 H        0.925     0.036     2.505     2.475
    59   1 H        0.925     0.033     2.541     2.493
    60   1 H        0.925     0.023     2.683     2.561

Wiberg/Mayer (AO) data.
largest (>0.10) Wiberg bond orders for each atom

     #   Z sym  total        # sym  WBO       # sym  WBO       # sym  WBO
 ---------------------------------------------------------------------------
     1   6 C    3.994 --     2 C    0.997    34 H    0.984    33 H    0.982
                            35 H    0.982
     2   6 C    3.942 --     1 C    0.997     4 C    0.991     3 O    0.949
                             5 C    0.938
     3   8 O    2.226 --     9 B    1.129     2 C    0.949
     4   6 C    3.994 --     2 C    0.991    38 H    0.984    37 H    0.984
                            36 H    0.983
     5   6 C    3.940 --     6 C    0.997     7 C    0.991     8 O    0.948
                             2 C    0.938
     6   6 C    3.994 --     5 C    0.997    39 H    0.984    41 H    0.982
                            40 H    0.982
     7   6 C    3.995 --     5 C    0.991    42 H    0.984    44 H    0.984
                            43 H    0.983
     8   8 O    2.236 --     9 B    1.141     5 C    0.948
     9   5 B    3.374 --     8 O    1.141     3 O    1.129    10 C    0.988
    10   6 C    3.931 --    11 C    1.063     9 B    0.988    29 C    0.871
                            27 C    0.843
    11   6 C    3.990 --    12 C    1.870    10 C    1.063    45 H    0.965
    12   6 C    3.990 --    11 C    1.870    14 C    0.984    13 H    0.968
    13   1 H    0.999 --    12 C    0.968
    14   6 C    3.996 --    31 C    0.988    12 C    0.984    15 H    0.972
                            16 C    0.971
    15   1 H    0.998 --    14 C    0.972
    16   6 C    3.975 --    26 C    1.791    17 B    1.007    14 C    0.971
    17   5 B    3.376 --    18 O    1.125    25 O    1.124    16 C    1.007
    18   8 O    2.231 --    17 B    1.125    19 C    0.954
    19   6 C    3.944 --    20 C    0.997    21 C    0.990    18 O    0.954
                            22 C    0.936
    20   6 C    3.994 --    19 C    0.997    47 H    0.985    46 H    0.983
                            48 H    0.982
    21   6 C    3.994 --    19 C    0.990    51 H    0.985    50 H    0.984
                            49 H    0.983
    22   6 C    3.943 --    24 C    0.996    23 C    0.990    25 O    0.954
                            19 C    0.936
    23   6 C    3.995 --    22 C    0.990    52 H    0.985    54 H    0.984
                            53 H    0.983
    24   6 C    3.994 --    22 C    0.996    55 H    0.985    57 H    0.983
                            56 H    0.982
    25   8 O    2.228 --    17 B    1.124    22 C    0.954
    26   6 C    3.989 --    16 C    1.791    27 C    1.092    58 H    0.964
    27   6 C    3.945 --    26 C    1.092    28 H    0.970    29 C    0.900
                            10 C    0.843
    28   1 H    0.998 --    27 C    0.970
    29   6 C    3.950 --    30 C    1.072    59 H    0.970    27 C    0.900
                            10 C    0.871
    30   6 C    3.990 --    31 C    1.864    29 C    1.072    60 H    0.967
    31   6 C    3.988 --    30 C    1.864    14 C    0.988    32 H    0.969
    32   1 H    0.999 --    31 C    0.969
    33   1 H    0.997 --     1 C    0.982
    34   1 H    0.998 --     1 C    0.984
    35   1 H    0.997 --     1 C    0.982
    36   1 H    0.997 --     4 C    0.983
    37   1 H    0.998 --     4 C    0.984
    38   1 H    0.998 --     4 C    0.984
    39   1 H    0.998 --     6 C    0.984
    40   1 H    0.997 --     6 C    0.982
    41   1 H    0.997 --     6 C    0.982
    42   1 H    0.998 --     7 C    0.984
    43   1 H    0.997 --     7 C    0.983
    44   1 H    0.998 --     7 C    0.984
    45   1 H    0.999 --    11 C    0.965
    46   1 H    0.997 --    20 C    0.983
    47   1 H    0.998 --    20 C    0.985
    48   1 H    0.997 --    20 C    0.982
    49   1 H    0.997 --    21 C    0.983
    50   1 H    0.998 --    21 C    0.984
    51   1 H    0.998 --    21 C    0.985
    52   1 H    0.998 --    23 C    0.985
    53   1 H    0.997 --    23 C    0.983
    54   1 H    0.998 --    23 C    0.984
    55   1 H    0.998 --    24 C    0.985
    56   1 H    0.997 --    24 C    0.982
    57   1 H    0.997 --    24 C    0.983
    58   1 H    0.999 --    26 C    0.964
    59   1 H    0.998 --    29 C    0.970
    60   1 H    0.999 --    30 C    0.967
 ---------------------------------------------------------------------------

molecular dipole:
                 x           y           z       tot (Debye)
 q only:       -0.220      -0.566      -0.232
   full:       -0.293      -0.668      -0.256       1.965

           -------------------------------------------------
          | TOTAL ENERGY              -82.321801913066 Eh   |
          | GRADIENT NORM               0.000821550992 Eh/α |
          | HOMO-LUMO GAP               3.477950221952 eV   |
           -------------------------------------------------

 * finished run on 2022/07/09 at 18:33:45.992
