   * xtb version 6.5.0 (homebrew) compiled by 'nhattrup@GPGGRP-SHANNON.CHEME.CMU.EDU' on
          program call               : /opt/homebrew/bin/xtb bvl_bpin2_scan_4-0_xtb.xyz --chrg 0 --uhf 0 --opt --input xcontrol_bvl_bpin2_scan_4-0_xtb

   ID    Z sym.   atoms
    1    6 C      1, 2, 4-7, 10-12, 14, 16, 19-24, 26, 27, 29-31
    2    8 O      3, 8, 18, 25
    3    5 B      9, 17
    4    1 H      13, 15, 28, 32-60
constraining bond 12 31 to    1.9444000 Å, actual value:    1.8267186 Å
constraining bond 10 29 to    2.5000000 Å, actual value:    2.4983930 Å

          :  Hamiltonian                  GFN2-xTB          :
 * total energy  :   -82.2024630 Eh     change       -0.2100563E-08 Eh
 * total energy  :   -82.2636998 Eh     change       -0.6123679E-01 Eh
 * total energy  :   -82.2906216 Eh     change       -0.2692183E-01 Eh
 * total energy  :   -82.2909345 Eh     change       -0.3128829E-03 Eh
 * total energy  :   -82.2909832 Eh     change       -0.4871805E-04 Eh
 * total energy  :   -82.2891733 Eh     change        0.1809919E-02 Eh
 * total energy  :   -82.2911528 Eh     change       -0.1979544E-02 Eh
 * total energy  :   -82.2911691 Eh     change       -0.1623572E-04 Eh
 * total energy  :   -82.2911922 Eh     change       -0.2311537E-04 Eh
 * total energy  :   -82.2912144 Eh     change       -0.2224156E-04 Eh
 * total energy  :   -82.2912275 Eh     change       -0.1310338E-04 Eh
 * total energy  :   -82.2912356 Eh     change       -0.8085693E-05 Eh
 * total energy  :   -82.2912435 Eh     change       -0.7910900E-05 Eh
 * total energy  :   -82.2912472 Eh     change       -0.3715797E-05 Eh
 * total energy  :   -82.2912523 Eh     change       -0.5105748E-05 Eh
 * total energy  :   -82.2912552 Eh     change       -0.2885443E-05 Eh
 * total energy  :   -82.2912590 Eh     change       -0.3746823E-05 Eh
 * total energy  :   -82.2912624 Eh     change       -0.3395222E-05 Eh
   *** GEOMETRY OPTIMIZATION CONVERGED AFTER 18 ITERATIONS ***

 final structure:
================
60
 xtb: 6.5.0 (homebrew)
C            3.28133303531466      -38.06069023540943       16.15328499794376
C            3.59885341955549      -38.26206587845640       17.63344048860198
O            3.23197076228421      -37.09406362351456       18.36399090004570
C            2.74384816589019      -39.41404591803766       18.17772277635537
C            5.12544239903209      -38.42669527217722       17.96879648950997
C            5.58100720269416      -39.86437569045539       18.20919667958756
C            6.03849346151883      -37.78041280448913       16.91856317577981
O            5.27553699709237      -37.67422100001300       19.17089068448479
B            4.19107078004252      -36.84729942357240       19.31165032427500
C            4.05055553007725      -35.79415418023925       20.43819085024002
C            5.07968448404291      -35.55595583583623       21.29084496792506
C            5.13376634928888      -34.67637635160352       22.39579412709558
H            6.08793593896914      -34.53660510140593       22.87951967389582
C            3.95508747522111      -34.02339082076744       23.07865037465794
H            4.17210083331435      -33.77257144962313       24.11505658173790
C            2.60986834683423      -34.65975871099323       22.98452924368477
B            1.81873550096583      -34.85918832386189       24.31412033501517
O            2.28516543251735      -34.47464277890370       25.54165784232524
C            1.39383088272866      -34.96056429377781       26.54481913256247
C            1.20154734866310      -33.88979782954217       27.61646977906758
C            2.06260426001605      -36.18907776840744       27.17470361468419
C            0.10021008011724      -35.32097304239383       25.72702885231061
C           -0.93858476774705      -34.19227987074722       25.72315831852430
C           -0.58012638673133      -36.62494638132700       26.13788682768464
O            0.58568205936518      -35.44181340605611       24.39022589337840
C            2.09354431122640      -35.06999749637597       21.82276120084949
C            2.75838519556133      -34.96240050757191       20.48590183846684
H            2.08956751647045      -35.37460626449484       19.72759287742883
C            3.06585027606281      -33.52283262626648       20.10549791082552
C            3.81637395327908      -32.68549506663329       20.83919002020204
C            4.34977249314492      -32.92255356191985       22.13446629163511
H            5.04411575842178      -32.19628536052618       22.52732930585035
H            2.20400178738182      -37.97731958817684       16.03260845442342
H            3.63522308478109      -38.90935239064972       15.57398183530387
H            3.73334040916945      -37.14955432194953       15.77498770349415
H            1.69516099288837      -39.14985653460851       18.06181214188379
H            2.93863470604775      -39.55589808830291       19.23784623947889
H            2.93802930402320      -40.33717874585780       17.63974045507170
H            5.38949844821787      -40.47260018785241       17.32924776121045
H            5.07603255796996      -40.29636201138867       19.06700916450751
H            6.64903183491322      -39.86516245254234       18.41249103362552
H            6.00846750897825      -38.32779933679686       15.98116116030481
H            7.05770656195442      -37.78399579322311       17.29828747540288
H            5.74643208451806      -36.74656920536282       16.75188909980671
H            5.99114240798715      -36.11540840078674       21.10950960776189
H            2.14743349380841      -33.72918134749838       28.12791639605629
H            0.46027487289103      -34.21273098748296       28.34242024392100
H            0.89246889830292      -32.94676385558523       27.17748204398807
H            3.02811635613888      -35.88927411025566       27.57580220810540
H            2.23564898106607      -36.95042087829793       26.41825727766090
H            1.45769679088035      -36.59816445569226       27.97829019155751
H           -1.38484732794854      -34.06425231133332       26.70479829235942
H           -1.71896252996342      -34.44564224969275       25.00936318724195
H           -0.48024438289226      -33.26060923023059       25.40132311229108
H           -0.88047865893530      -36.58189694209508       27.18129844334769
H            0.07677503798101      -37.47463352039378       25.98334203409211
H           -1.46479279791806      -36.76777562642131       25.52243566994543
H            1.11629244377064      -35.53304269959829       21.84493250075539
H            2.74954264127037      -33.21984951721176       19.11881924222829
H            4.06289539748325      -31.71555833531283       20.41982464754174

          :  Hamiltonian                  GFN2-xTB          :
         :: total energy             -82.291262356252 Eh    ::
         :: gradient norm              0.000932613792 Eh/a0 ::
         :: HOMO-LUMO gap              2.276071132429 eV    ::
         :: SCC energy               -83.364334427736 Eh    ::
         :: -> dispersion             -0.061311832529 Eh    ::
         :: repulsion energy           1.072033629075 Eh    ::

    * Orbital Energies and Occupations

         #    Occupation            Energy/Eh            Energy/eV
      -------------------------------------------------------------
         1        2.0000           -0.6878457             -18.7172
       ...           ...                  ...                  ...
        63        2.0000           -0.4364330             -11.8759
        64        2.0000           -0.4284536             -11.6588
        65        2.0000           -0.4263024             -11.6003
        66        2.0000           -0.4200435             -11.4300
        67        2.0000           -0.4179288             -11.3724
        68        2.0000           -0.4118792             -11.2078
        69        2.0000           -0.4026253             -10.9560
        70        2.0000           -0.3975252             -10.8172
        71        2.0000           -0.3938562             -10.7174
        72        2.0000           -0.3933658             -10.7040
        73        2.0000           -0.3925699             -10.6824
        74        2.0000           -0.3625774              -9.8662
        75        2.0000           -0.3316077              -9.0235 (HOMO)
        76                         -0.2479636              -6.7474 (LUMO)
        77                         -0.2185592              -5.9473
        78                         -0.1883201              -5.1244
        79                         -0.1267911              -3.4502
        80                         -0.0978059              -2.6614
        81                         -0.0789212              -2.1476
        82                          0.0086113               0.2343
        83                          0.0150783               0.4103
        84                          0.0284628               0.7745
        85                          0.0320723               0.8727
        86                          0.0567272               1.5436
       ...                                ...                  ...
       144                          0.6752587              18.3747
      -------------------------------------------------------------
                  HL-Gap            0.0836441 Eh            2.2761 eV

     #   Z          covCN         q      C6AA      α(0)
     1   6 C        3.755    -0.117    22.787     6.807
     2   6 C        3.859     0.129    18.448     6.108
     3   8 O        1.638    -0.374    20.363     6.091
     4   6 C        3.755    -0.116    22.767     6.804
     5   6 C        3.859     0.130    18.445     6.108
     6   6 C        3.755    -0.117    22.793     6.807
     7   6 C        3.755    -0.115    22.765     6.803
     8   8 O        1.638    -0.376    20.403     6.097
     9   5 B        2.659     0.430    15.585     6.647
    10   6 C        2.868    -0.091    30.269     9.019
    11   6 C        2.893    -0.030    28.756     8.792
    12   6 C        3.502    -0.022    22.593     7.049
    13   1 H        0.926     0.032     2.556     2.500
    14   6 C        3.863    -0.005    20.635     6.460
    15   1 H        0.925     0.049     2.338     2.391
    16   6 C        2.864    -0.086    30.157     9.001
    17   5 B        2.661     0.431    15.567     6.641
    18   8 O        1.638    -0.373    20.340     6.088
    19   6 C        3.859     0.129    18.456     6.110
    20   6 C        3.755    -0.117    22.800     6.809
    21   6 C        3.755    -0.116    22.780     6.806
    22   6 C        3.860     0.129    18.457     6.110
    23   6 C        3.755    -0.117    22.787     6.807
    24   6 C        3.755    -0.118    22.808     6.810
    25   8 O        1.638    -0.370    20.280     6.079
    26   6 C        2.901    -0.023    28.578     8.765
    27   6 C        3.859    -0.018    20.864     6.496
    28   1 H        0.924     0.046     2.369     2.407
    29   6 C        2.895    -0.037    28.923     8.818
    30   6 C        2.888    -0.036    28.889     8.812
    31   6 C        3.504    -0.019    22.497     7.029
    32   1 H        0.926     0.032     2.555     2.500
    33   1 H        0.925     0.054     2.276     2.359
    34   1 H        0.925     0.038     2.469     2.457
    35   1 H        0.925     0.051     2.306     2.375
    36   1 H        0.925     0.051     2.302     2.373
    37   1 H        0.925     0.043     2.408     2.426
    38   1 H        0.925     0.041     2.433     2.439
    39   1 H        0.925     0.039     2.464     2.455
    40   1 H        0.925     0.051     2.301     2.372
    41   1 H        0.925     0.053     2.280     2.361
    42   1 H        0.925     0.042     2.428     2.437
    43   1 H        0.925     0.051     2.310     2.377
    44   1 H        0.925     0.043     2.411     2.428
    45   1 H        0.925     0.037     2.491     2.468
    46   1 H        0.925     0.054     2.270     2.356
    47   1 H        0.925     0.040     2.450     2.448
    48   1 H        0.925     0.052     2.295     2.369
    49   1 H        0.925     0.052     2.296     2.370
    50   1 H        0.925     0.044     2.398     2.422
    51   1 H        0.925     0.043     2.415     2.430
    52   1 H        0.925     0.043     2.412     2.429
    53   1 H        0.925     0.053     2.285     2.364
    54   1 H        0.925     0.044     2.398     2.422
    55   1 H        0.925     0.040     2.449     2.447
    56   1 H        0.925     0.052     2.293     2.368
    57   1 H        0.925     0.055     2.261     2.351
    58   1 H        0.925     0.038     2.480     2.463
    59   1 H        0.926     0.028     2.620     2.531
    60   1 H        0.925     0.026     2.646     2.544

Wiberg/Mayer (AO) data.
largest (>0.10) Wiberg bond orders for each atom

     #   Z sym  total        # sym  WBO       # sym  WBO       # sym  WBO
 ---------------------------------------------------------------------------
     1   6 C    3.994 --     2 C    0.996    34 H    0.985    33 H    0.983
                            35 H    0.982
     2   6 C    3.944 --     1 C    0.996     4 C    0.990     3 O    0.955
                             5 C    0.936
     3   8 O    2.224 --     9 B    1.117     2 C    0.955
     4   6 C    3.994 --     2 C    0.990    38 H    0.985    37 H    0.984
                            36 H    0.983
     5   6 C    3.944 --     6 C    0.996     7 C    0.990     8 O    0.955
                             2 C    0.936
     6   6 C    3.994 --     5 C    0.996    39 H    0.985    41 H    0.983
                            40 H    0.982
     7   6 C    3.995 --     5 C    0.990    42 H    0.985    44 H    0.984
                            43 H    0.983
     8   8 O    2.221 --     9 B    1.116     5 C    0.955
     9   5 B    3.381 --     3 O    1.117     8 O    1.116    10 C    1.022
    10   6 C    3.969 --    11 C    1.654     9 B    1.022    27 C    0.955
                            31 C    0.109
    11   6 C    3.990 --    10 C    1.654    12 C    1.255    45 H    0.958
    12   6 C    3.935 --    11 C    1.255    13 H    0.974    14 C    0.936
                            31 C    0.580    29 C    0.107
    13   1 H    0.999 --    12 C    0.974
    14   6 C    3.980 --    16 C    1.021    15 H    0.966    31 C    0.955
                            12 C    0.936
    15   1 H    0.997 --    14 C    0.966
    16   6 C    3.977 --    26 C    1.832    14 C    1.021    17 B    0.999
    17   5 B    3.377 --    25 O    1.133    18 O    1.127    16 C    0.999
    18   8 O    2.232 --    17 B    1.127    19 C    0.953
    19   6 C    3.943 --    20 C    0.997    21 C    0.991    18 O    0.953
                            22 C    0.936
    20   6 C    3.994 --    19 C    0.997    47 H    0.984    46 H    0.983
                            48 H    0.982
    21   6 C    3.994 --    19 C    0.991    51 H    0.984    50 H    0.984
                            49 H    0.983
    22   6 C    3.942 --    24 C    0.996    23 C    0.991    25 O    0.953
                            19 C    0.936
    23   6 C    3.995 --    22 C    0.991    52 H    0.984    54 H    0.984
                            53 H    0.983
    24   6 C    3.994 --    22 C    0.996    55 H    0.985    57 H    0.982
                            56 H    0.982
    25   8 O    2.237 --    17 B    1.133    22 C    0.953
    26   6 C    3.985 --    16 C    1.832    27 C    1.004    58 H    0.967
    27   6 C    3.994 --    26 C    1.004    29 C    0.980    28 H    0.972
                            10 C    0.955
    28   1 H    0.998 --    27 C    0.972
    29   6 C    3.982 --    30 C    1.738    27 C    0.980    59 H    0.971
                            12 C    0.107
    30   6 C    3.991 --    29 C    1.738    31 C    1.219    60 H    0.961
    31   6 C    3.924 --    30 C    1.219    32 H    0.975    14 C    0.955
                            12 C    0.580    10 C    0.109
    32   1 H    0.999 --    31 C    0.975
    33   1 H    0.997 --     1 C    0.983
    34   1 H    0.998 --     1 C    0.985
    35   1 H    0.997 --     1 C    0.982
    36   1 H    0.997 --     4 C    0.983
    37   1 H    0.998 --     4 C    0.984
    38   1 H    0.998 --     4 C    0.985
    39   1 H    0.998 --     6 C    0.985
    40   1 H    0.997 --     6 C    0.982
    41   1 H    0.997 --     6 C    0.983
    42   1 H    0.998 --     7 C    0.985
    43   1 H    0.997 --     7 C    0.983
    44   1 H    0.998 --     7 C    0.984
    45   1 H    0.998 --    11 C    0.958
    46   1 H    0.997 --    20 C    0.983
    47   1 H    0.998 --    20 C    0.984
    48   1 H    0.997 --    20 C    0.982
    49   1 H    0.997 --    21 C    0.983
    50   1 H    0.998 --    21 C    0.984
    51   1 H    0.998 --    21 C    0.984
    52   1 H    0.998 --    23 C    0.984
    53   1 H    0.997 --    23 C    0.983
    54   1 H    0.998 --    23 C    0.984
    55   1 H    0.998 --    24 C    0.985
    56   1 H    0.997 --    24 C    0.982
    57   1 H    0.997 --    24 C    0.982
    58   1 H    0.998 --    26 C    0.967
    59   1 H    0.999 --    29 C    0.971
    60   1 H    0.999 --    30 C    0.961
 ---------------------------------------------------------------------------

molecular dipole:
                 x           y           z       tot (Debye)
 q only:       -0.263      -0.398       0.352
   full:       -0.142      -0.482       0.303       1.491

           -------------------------------------------------
          | TOTAL ENERGY              -82.291262356252 Eh   |
          | GRADIENT NORM               0.000932613792 Eh/α |
          | HOMO-LUMO GAP               2.276071132429 eV   |
           -------------------------------------------------

 * finished run on 2022/07/09 at 18:33:00.454
