   * xtb version 6.5.0 (homebrew) compiled by 'nhattrup@GPGGRP-SHANNON.CHEME.CMU.EDU' on
          program call               : /opt/homebrew/bin/xtb bvl_bpin2_scan_4-2_xtb.xyz --chrg 0 --uhf 0 --opt --input xcontrol_bvl_bpin2_scan_4-2_xtb

   ID    Z sym.   atoms
    1    6 C      1, 2, 4-7, 10-12, 14, 16, 19-24, 26, 27, 29-31
    2    8 O      3, 8, 18, 25
    3    5 B      9, 17
    4    1 H      13, 15, 28, 32-60
constraining bond 12 31 to    1.9444000 Å, actual value:    1.8273869 Å
constraining bond 10 29 to    2.2778000 Å, actual value:    2.3883036 Å

          :  Hamiltonian                  GFN2-xTB          :
 * total energy  :   -82.1180205 Eh     change       -0.2027079E-08 Eh
 * total energy  :   -82.2492201 Eh     change       -0.1311996E+00 Eh
 * total energy  :   -82.2925308 Eh     change       -0.4331070E-01 Eh
 * total energy  :   -82.2932856 Eh     change       -0.7547429E-03 Eh
 * total energy  :   -82.2922854 Eh     change        0.1000151E-02 Eh
 * total energy  :   -82.2926877 Eh     change       -0.4022686E-03 Eh
 * total energy  :   -82.2940673 Eh     change       -0.1379640E-02 Eh
 * total energy  :   -82.2943826 Eh     change       -0.3152345E-03 Eh
 * total energy  :   -82.2945407 Eh     change       -0.1580991E-03 Eh
 * total energy  :   -82.2948995 Eh     change       -0.3588680E-03 Eh
 * total energy  :   -82.2956804 Eh     change       -0.2536601E-04 Eh
 * total energy  :   -82.2957030 Eh     change       -0.2264737E-04 Eh
 * total energy  :   -82.2957228 Eh     change       -0.1974070E-04 Eh
 * total energy  :   -82.2957407 Eh     change       -0.1789154E-04 Eh
 * total energy  :   -82.2957575 Eh     change       -0.1680928E-04 Eh
 * total energy  :   -82.2957721 Eh     change       -0.1459258E-04 Eh
 * total energy  :   -82.2957837 Eh     change       -0.1165161E-04 Eh
 * total energy  :   -82.2957927 Eh     change       -0.9005804E-05 Eh
 * total energy  :   -82.2957948 Eh     change       -0.2137170E-05 Eh
   *** GEOMETRY OPTIMIZATION CONVERGED AFTER 44 ITERATIONS ***

 final structure:
================
60
 xtb: 6.5.0 (homebrew)
C            3.44292432689193      -37.91017875163894       16.01731445751724
C            3.68824439771693      -38.22507795160502       17.49138850215504
O            3.24932653074572      -37.13045356102733       18.29275205147684
C            2.83856114955575      -39.43788019960772       17.89289417089666
C            5.20040062230117      -38.37841592088184       17.89349985275629
C            5.68038976288723      -39.81922588109524       18.05526955089690
C            6.14938462505966      -37.63822056923559       16.94195575832114
O            5.27090060162334      -37.71058469737224       19.15185142514611
B            4.15506162941671      -36.93024093933392       19.30121321863498
C            3.93131770395205      -35.96159337425832       20.49168832814883
C            4.96194309901758      -35.69991830110053       21.35059948649874
C            5.00143481827977      -34.81281481062351       22.43732872743746
H            5.95382659263382      -34.66223393286301       22.92355221050569
C            3.83371770960275      -34.09285791824481       23.05656328223634
H            4.05907928488320      -33.74953042160715       24.06445605397179
C            2.48487233544249      -34.73308986556125       23.03779602501815
B            1.72748239283778      -34.84524070004869       24.39759798286315
O            2.25744880296808      -34.44813373297444       25.59557337291779
C            1.39261439218597      -34.88432812795334       26.64379449010990
C            1.29829760095896      -33.80078895114988       27.71512329958711
C            2.03149307882227      -36.13953750427206       27.25183933357777
C            0.04945663525883      -35.19089463012772       25.88848353396333
C           -0.92139769309776      -34.00332015197988       25.89685743277744
C           -0.68605310826431      -36.44217851149224       26.36224706692528
O            0.47436626120433      -35.37125454840385       24.53747978160756
C            1.95568893266595      -35.23851992637866       21.92268123054818
C            2.59149007501459      -35.25036883717797       20.57252676837595
H            1.91206521942284      -35.72164652893576       19.86091800675613
C            3.03020025224066      -33.92272646241920       20.02699111867852
C            3.77211295902930      -33.00609144515213       20.68914793566566
C            4.22753738945122      -33.08293087699128       22.02094866882392
H            4.90590193428080      -32.31233992678948       22.35668148100979
H            2.37154309646367      -37.84194125078971       15.84529293223232
H            3.84983447047810      -38.70019657636458       15.39186836328232
H            3.88909217440259      -36.96100904443344       15.73869473164801
H            1.79073222446682      -39.19251700389688       17.73491508593051
H            2.97582142911982      -39.65884777197238       18.94847396403562
H            3.09109511868444      -40.31002779655271       17.29738486279677
H            5.55305970168356      -40.36534487269582       17.12443075566460
H            5.14170852277055      -40.32477457756248       18.85007125785368
H            6.73554468538239      -39.81077961633432       18.31710519811424
H            6.18287007075106      -38.11721971400620       15.96799860591200
H            7.14684582673707      -37.64652588728377       17.37553175313332
H            5.83998015921886      -36.60172536335531       16.83342627482812
H            5.89735683740970      -36.20020835412958       21.12672274648684
H            2.27065586758717      -33.68677358202440       28.18797535865094
H            0.57089910147333      -34.08354030806870       28.47128192391438
H            1.01986687935068      -32.84493678629480       27.28345188173495
H            3.02964406173864      -35.88486269154742       27.60086985513210
H            2.12845302088711      -36.91406771580291       26.49509253125383
H            1.44824480152674      -36.51173931076094       28.08868687306368
H           -1.32500456363829      -33.83283730955218       26.89046046172182
H           -1.73931240464683      -34.22186140702475       25.21428464438558
H           -0.42015264866119      -33.10601980538802       25.54276726651080
H           -0.93658142230058      -36.35485922465499       27.41605714851971
H           -0.08681980235247      -37.33278487907462       26.20376684362397
H           -1.60403999215062      -36.54804167562282       25.78961087015580
H            0.97972526578853      -35.69939397262422       21.99260597716739
H            2.82664205787756      -33.76123716218493       18.97826356999015
H            4.11590514497128      -32.14031838169655       20.13372365644408

          :  Hamiltonian                  GFN2-xTB          :
         :: total energy             -82.295794848287 Eh    ::
         :: gradient norm              0.000338937326 Eh/a0 ::
         :: HOMO-LUMO gap              2.646839899903 eV    ::
         :: SCC energy               -83.372740206430 Eh    ::
         :: -> dispersion             -0.061700789073 Eh    ::
         :: repulsion energy           1.076096655982 Eh    ::

    * Orbital Energies and Occupations

         #    Occupation            Energy/Eh            Energy/eV
      -------------------------------------------------------------
         1        2.0000           -0.6877087             -18.7135
       ...           ...                  ...                  ...
        63        2.0000           -0.4356097             -11.8535
        64        2.0000           -0.4296702             -11.6919
        65        2.0000           -0.4275528             -11.6343
        66        2.0000           -0.4201842             -11.4338
        67        2.0000           -0.4189284             -11.3996
        68        2.0000           -0.4138577             -11.2616
        69        2.0000           -0.4041638             -10.9979
        70        2.0000           -0.3972728             -10.8103
        71        2.0000           -0.3949898             -10.7482
        72        2.0000           -0.3928669             -10.6905
        73        2.0000           -0.3898191             -10.6075
        74        2.0000           -0.3574749              -9.7274
        75        2.0000           -0.3385766              -9.2131 (HOMO)
        76                         -0.2413070              -6.5663 (LUMO)
        77                         -0.2184726              -5.9449
        78                         -0.1891109              -5.1460
        79                         -0.1239077              -3.3717
        80                         -0.0988185              -2.6890
        81                         -0.0753434              -2.0502
        82                          0.0090060               0.2451
        83                          0.0134669               0.3665
        84                          0.0290522               0.7906
        85                          0.0308778               0.8402
        86                          0.0568793               1.5478
       ...                                ...                  ...
       144                          0.6829447              18.5839
      -------------------------------------------------------------
                  HL-Gap            0.0972696 Eh            2.6468 eV

     #   Z          covCN         q      C6AA      α(0)
     1   6 C        3.755    -0.117    22.788     6.807
     2   6 C        3.859     0.129    18.448     6.108
     3   8 O        1.638    -0.375    20.375     6.093
     4   6 C        3.755    -0.116    22.769     6.804
     5   6 C        3.858     0.129    18.447     6.108
     6   6 C        3.755    -0.117    22.797     6.808
     7   6 C        3.755    -0.115    22.764     6.803
     8   8 O        1.638    -0.375    20.388     6.095
     9   5 B        2.659     0.431    15.576     6.645
    10   6 C        2.933    -0.085    30.135     9.003
    11   6 C        2.893    -0.037    28.922     8.817
    12   6 C        3.499    -0.021    22.608     7.057
    13   1 H        0.926     0.031     2.572     2.508
    14   6 C        3.864    -0.008    20.680     6.467
    15   1 H        0.925     0.048     2.348     2.396
    16   6 C        2.863    -0.085    30.115     8.995
    17   5 B        2.663     0.431    15.554     6.637
    18   8 O        1.638    -0.373    20.342     6.088
    19   6 C        3.861     0.129    18.453     6.109
    20   6 C        3.755    -0.117    22.799     6.808
    21   6 C        3.755    -0.116    22.782     6.806
    22   6 C        3.861     0.129    18.454     6.109
    23   6 C        3.755    -0.117    22.787     6.806
    24   6 C        3.755    -0.118    22.808     6.810
    25   8 O        1.638    -0.370    20.280     6.079
    26   6 C        2.898    -0.025    28.617     8.771
    27   6 C        3.862    -0.014    20.786     6.484
    28   1 H        0.924     0.046     2.374     2.409
    29   6 C        2.960    -0.031    28.765     8.797
    30   6 C        2.888    -0.042    29.042     8.835
    31   6 C        3.501    -0.017    22.508     7.037
    32   1 H        0.926     0.031     2.570     2.507
    33   1 H        0.925     0.054     2.274     2.358
    34   1 H        0.925     0.039     2.465     2.455
    35   1 H        0.925     0.051     2.307     2.375
    36   1 H        0.925     0.052     2.301     2.372
    37   1 H        0.925     0.043     2.405     2.425
    38   1 H        0.925     0.042     2.429     2.437
    39   1 H        0.925     0.039     2.461     2.453
    40   1 H        0.925     0.052     2.299     2.371
    41   1 H        0.925     0.054     2.276     2.359
    42   1 H        0.925     0.042     2.425     2.435
    43   1 H        0.925     0.051     2.305     2.374
    44   1 H        0.925     0.043     2.412     2.429
    45   1 H        0.925     0.035     2.520     2.482
    46   1 H        0.925     0.054     2.270     2.356
    47   1 H        0.925     0.040     2.451     2.448
    48   1 H        0.925     0.052     2.293     2.368
    49   1 H        0.925     0.052     2.296     2.370
    50   1 H        0.925     0.044     2.399     2.422
    51   1 H        0.925     0.043     2.415     2.430
    52   1 H        0.925     0.043     2.412     2.429
    53   1 H        0.925     0.053     2.286     2.365
    54   1 H        0.925     0.044     2.399     2.422
    55   1 H        0.925     0.040     2.450     2.448
    56   1 H        0.925     0.052     2.291     2.367
    57   1 H        0.925     0.055     2.261     2.351
    58   1 H        0.925     0.038     2.481     2.463
    59   1 H        0.926     0.028     2.609     2.526
    60   1 H        0.925     0.024     2.676     2.558

Wiberg/Mayer (AO) data.
largest (>0.10) Wiberg bond orders for each atom

     #   Z sym  total        # sym  WBO       # sym  WBO       # sym  WBO
 ---------------------------------------------------------------------------
     1   6 C    3.994 --     2 C    0.997    34 H    0.985    33 H    0.983
                            35 H    0.982
     2   6 C    3.944 --     1 C    0.997     4 C    0.990     3 O    0.955
                             5 C    0.936
     3   8 O    2.223 --     9 B    1.118     2 C    0.955
     4   6 C    3.994 --     2 C    0.990    38 H    0.985    37 H    0.984
                            36 H    0.983
     5   6 C    3.943 --     6 C    0.996     7 C    0.990     8 O    0.955
                             2 C    0.936
     6   6 C    3.994 --     5 C    0.996    39 H    0.985    41 H    0.983
                            40 H    0.982
     7   6 C    3.995 --     5 C    0.990    42 H    0.985    44 H    0.984
                            43 H    0.983
     8   8 O    2.223 --     9 B    1.119     5 C    0.955
     9   5 B    3.381 --     8 O    1.119     3 O    1.118    10 C    1.019
    10   6 C    3.961 --    11 C    1.585     9 B    1.019    27 C    0.949
                            29 C    0.154    31 C    0.117
    11   6 C    3.990 --    10 C    1.585    12 C    1.311    45 H    0.961
    12   6 C    3.942 --    11 C    1.311    13 H    0.974    14 C    0.942
                            31 C    0.521    29 C    0.116
    13   1 H    0.999 --    12 C    0.974
    14   6 C    3.981 --    16 C    1.012    15 H    0.967    31 C    0.959
                            12 C    0.942
    15   1 H    0.997 --    14 C    0.967
    16   6 C    3.977 --    26 C    1.843    14 C    1.012    17 B    0.999
    17   5 B    3.376 --    25 O    1.134    18 O    1.126    16 C    0.999
    18   8 O    2.231 --    17 B    1.126    19 C    0.952
    19   6 C    3.943 --    20 C    0.997    21 C    0.991    18 O    0.952
                            22 C    0.937
    20   6 C    3.994 --    19 C    0.997    47 H    0.984    46 H    0.983
                            48 H    0.982
    21   6 C    3.994 --    19 C    0.991    51 H    0.984    50 H    0.984
                            49 H    0.983
    22   6 C    3.942 --    24 C    0.997    23 C    0.991    25 O    0.952
                            19 C    0.937
    23   6 C    3.995 --    22 C    0.991    52 H    0.984    54 H    0.984
                            53 H    0.983
    24   6 C    3.994 --    22 C    0.997    55 H    0.984    57 H    0.983
                            56 H    0.982
    25   8 O    2.236 --    17 B    1.134    22 C    0.952
    26   6 C    3.986 --    16 C    1.843    27 C    1.009    58 H    0.967
    27   6 C    3.993 --    26 C    1.009    29 C    0.978    28 H    0.970
                            10 C    0.949
    28   1 H    0.998 --    27 C    0.970
    29   6 C    3.974 --    30 C    1.657    27 C    0.978    59 H    0.971
                            10 C    0.154    12 C    0.116
    30   6 C    3.990 --    29 C    1.657    31 C    1.278    60 H    0.963
    31   6 C    3.931 --    30 C    1.278    32 H    0.975    14 C    0.959
                            12 C    0.521    10 C    0.117
    32   1 H    0.999 --    31 C    0.975
    33   1 H    0.997 --     1 C    0.983
    34   1 H    0.998 --     1 C    0.985
    35   1 H    0.997 --     1 C    0.982
    36   1 H    0.997 --     4 C    0.983
    37   1 H    0.998 --     4 C    0.984
    38   1 H    0.998 --     4 C    0.985
    39   1 H    0.998 --     6 C    0.985
    40   1 H    0.997 --     6 C    0.982
    41   1 H    0.997 --     6 C    0.983
    42   1 H    0.998 --     7 C    0.985
    43   1 H    0.997 --     7 C    0.983
    44   1 H    0.998 --     7 C    0.984
    45   1 H    0.999 --    11 C    0.961
    46   1 H    0.997 --    20 C    0.983
    47   1 H    0.998 --    20 C    0.984
    48   1 H    0.997 --    20 C    0.982
    49   1 H    0.997 --    21 C    0.983
    50   1 H    0.998 --    21 C    0.984
    51   1 H    0.998 --    21 C    0.984
    52   1 H    0.998 --    23 C    0.984
    53   1 H    0.997 --    23 C    0.983
    54   1 H    0.998 --    23 C    0.984
    55   1 H    0.998 --    24 C    0.984
    56   1 H    0.997 --    24 C    0.982
    57   1 H    0.997 --    24 C    0.983
    58   1 H    0.998 --    26 C    0.967
    59   1 H    0.999 --    29 C    0.971
    60   1 H    0.999 --    30 C    0.963
 ---------------------------------------------------------------------------

molecular dipole:
                 x           y           z       tot (Debye)
 q only:       -0.236      -0.375       0.281
   full:       -0.075      -0.445       0.198       1.253

           -------------------------------------------------
          | TOTAL ENERGY              -82.295794848287 Eh   |
          | GRADIENT NORM               0.000338937326 Eh/α |
          | HOMO-LUMO GAP               2.646839899903 eV   |
           -------------------------------------------------

 * finished run on 2022/07/09 at 18:33:08.460
