   * xtb version 6.5.0 (homebrew) compiled by 'nhattrup@GPGGRP-SHANNON.CHEME.CMU.EDU' on
          program call               : /opt/homebrew/bin/xtb bvl_bpin2_scan_0-3_xtb.xyz --chrg 0 --uhf 0 --opt --input xcontrol_bvl_bpin2_scan_0-3_xtb

   ID    Z sym.   atoms
    1    6 C      1, 2, 4-7, 10-12, 14, 16, 19-24, 26, 27, 29-31
    2    8 O      3, 8, 18, 25
    3    5 B      9, 17
    4    1 H      13, 15, 28, 32-60
constraining bond 12 31 to    1.5000000 Å, actual value:    1.5022288 Å
constraining bond 10 29 to    2.1667000 Å, actual value:    2.2802354 Å

          :  Hamiltonian                  GFN2-xTB          :
 * total energy  :   -82.2265539 Eh     change       -0.1637744E-08 Eh
 * total energy  :   -82.2811577 Eh     change       -0.5460387E-01 Eh
 * total energy  :   -82.3127963 Eh     change       -0.3163861E-01 Eh
 * total energy  :   -82.3133918 Eh     change       -0.5954522E-03 Eh
 * total energy  :   -82.3136998 Eh     change       -0.3079836E-03 Eh
 * total energy  :   -82.3137543 Eh     change       -0.5453958E-04 Eh
 * total energy  :   -82.3137985 Eh     change       -0.4417711E-04 Eh
 * total energy  :   -82.3138205 Eh     change       -0.2202828E-04 Eh
 * total energy  :   -82.3138353 Eh     change       -0.1475144E-04 Eh
 * total energy  :   -82.3138461 Eh     change       -0.1080409E-04 Eh
 * total energy  :   -82.3139104 Eh     change       -0.2334445E-04 Eh
 * total energy  :   -82.3139342 Eh     change       -0.2386241E-04 Eh
 * total energy  :   -82.3139531 Eh     change       -0.1881945E-04 Eh
 * total energy  :   -82.3139616 Eh     change       -0.8564418E-05 Eh
 * total energy  :   -82.3139688 Eh     change       -0.7145584E-05 Eh
 * total energy  :   -82.3139750 Eh     change       -0.6235764E-05 Eh
 * total energy  :   -82.3139806 Eh     change       -0.5562612E-05 Eh
 * total energy  :   -82.3139861 Eh     change       -0.5488454E-05 Eh
 * total energy  :   -82.3139889 Eh     change       -0.2877335E-05 Eh
   *** GEOMETRY OPTIMIZATION CONVERGED AFTER 22 ITERATIONS ***

 final structure:
================
60
 xtb: 6.5.0 (homebrew)
C            3.30321892850406      -38.00678032505722       16.11631477230144
C            3.62358377923177      -38.24677285601372       17.58999270002737
O            3.20998030213770      -37.11762992774814       18.35687507500390
C            2.80836009864186      -39.44554550315353       18.09179955447499
C            5.15540171657504      -38.36358558906745       17.92563003098939
C            5.65879379711590      -39.78846329563210       18.14575424191008
C            6.04915653854772      -37.67051806513571       16.88939310513974
O            5.27867481224146      -37.62347842222643       19.14024145246426
B            4.16123337861491      -36.85288035974437       19.30331232270129
C            3.97910275000802      -35.79679522215235       20.43810373503687
C            4.99800126555006      -35.57387838389724       21.29219648191880
C            5.07563638766861      -34.55637708826392       22.33061365171295
H            6.01093980134968      -34.57610973869095       22.88022825634246
C            3.88486740037710      -34.04570809490571       23.11191323185428
H            4.12031623222613      -33.73351109668843       24.12216188872755
C            2.54473238451410      -34.65954002311060       23.02448795838902
B            1.75682276803666      -34.82021533829362       24.36398171602560
O            2.24372693256017      -34.43703559538640       25.58389265518883
C            1.36578154493312      -34.92071997865752       26.59987921107026
C            1.20284330310620      -33.85792658629519       27.68386582413852
C            2.03379363790186      -36.16057421908219       27.20826953565286
C            0.05499968073662      -35.26296632418349       25.80274289039049
C           -0.96788950524012      -34.12005926078611       25.81767893159848
C           -0.63588625417454      -36.55781510704707       26.22477661146760
O            0.51844030359288      -35.38895742269057       24.45863389226130
C            2.01718226965262      -35.11423496257734       21.88445588875658
C            2.65309626132920      -35.10654903218528       20.53379265431087
H            1.96604733037423      -35.54019659669948       19.80721988456790
C            3.18668627222225      -33.81769553351899       20.03224172514402
C            3.94117343637599      -32.95554827676126       20.71734934299467
C            4.51125954377790      -33.19390581606081       22.04107961806373
H            5.09457717166127      -32.35675179438624       22.41111168758638
H            2.22403145644632      -37.95536627510091       15.99474150847375
H            3.68668138415349      -38.82340592096646       15.51063937681415
H            3.72542089678256      -37.06897912826246       15.77010219102929
H            1.75145908791313      -39.21661584944761       17.97514424297506
H            2.99999354313908      -39.61407704499226       19.14853689591924
H            3.04012390494700      -40.34335686838771       17.52681370823280
H            5.49373952673332      -40.38760896695478       17.25434665614547
H            5.16405585935764      -40.25277652238881       18.99254179294137
H            6.72493569273756      -39.75608760509050       18.35583988635839
H            6.03546347517404      -38.19984679495528       15.94140294259652
H            7.06763205197650      -37.65209428442238       17.27039205248048
H            5.72776205084812      -36.64238097510721       16.74317048957554
H            5.91316215730353      -36.12397527911258       21.11450530758514
H            2.15941001655449      -33.71061920346772       28.17916349822029
H            0.47211280532809      -34.18204028405891       28.41996082345775
H            0.89400454412539      -32.90811026807123       27.25971463958683
H            3.01021209892959      -35.87328310521271       27.59175136791048
H            2.18386238929009      -36.91862524088847       26.44362136558132
H            1.44052984238208      -36.56839725411603       28.02111215034756
H           -1.39767914194511      -33.99033493184348       26.80642177929115
H           -1.76206984216989      -34.35924099007209       25.11427090211365
H           -0.50089260575389      -33.19359012607870       25.49322990483789
H           -0.91398556923905      -36.51142135185563       27.27421656680533
H            0.00530653916591      -37.41685572489787       26.05628554315994
H           -1.53504956629769      -36.68715518970276       25.62760066955532
H            1.03270724732302      -35.55841183696513       21.93214699907193
H            2.92441799943305      -33.56368733768377       19.01214037066753
H            4.29171788521582      -32.05987980380499       20.22003584005675

          :  Hamiltonian                  GFN2-xTB          :
         :: total energy             -82.313988939692 Eh    ::
         :: gradient norm              0.000665446617 Eh/a0 ::
         :: HOMO-LUMO gap              3.214840073773 eV    ::
         :: SCC energy               -83.402197934725 Eh    ::
         :: -> dispersion             -0.061552491536 Eh    ::
         :: repulsion energy           1.087331405438 Eh    ::

    * Orbital Energies and Occupations

         #    Occupation            Energy/Eh            Energy/eV
      -------------------------------------------------------------
         1        2.0000           -0.6879001             -18.7187
       ...           ...                  ...                  ...
        63        2.0000           -0.4374155             -11.9027
        64        2.0000           -0.4306340             -11.7181
        65        2.0000           -0.4284896             -11.6598
        66        2.0000           -0.4200891             -11.4312
        67        2.0000           -0.4191466             -11.4056
        68        2.0000           -0.4129770             -11.2377
        69        2.0000           -0.4066104             -11.0644
        70        2.0000           -0.3981968             -10.8355
        71        2.0000           -0.3972362             -10.8093
        72        2.0000           -0.3963179             -10.7844
        73        2.0000           -0.3838066             -10.4439
        74        2.0000           -0.3618227              -9.8457
        75        2.0000           -0.3402689              -9.2592 (HOMO)
        76                         -0.2221257              -6.0443 (LUMO)
        77                         -0.2129358              -5.7943
        78                         -0.1837937              -5.0013
        79                         -0.1020257              -2.7763
        80                         -0.0916714              -2.4945
        81                          0.0087607               0.2384
        82                          0.0091318               0.2485
        83                          0.0158839               0.4322
        84                          0.0286666               0.7801
        85                          0.0293896               0.7997
        86                          0.0574214               1.5625
       ...                                ...                  ...
       144                          0.6891785              18.7535
      -------------------------------------------------------------
                  HL-Gap            0.1181432 Eh            3.2148 eV

     #   Z          covCN         q      C6AA      α(0)
     1   6 C        3.755    -0.117    22.795     6.808
     2   6 C        3.859     0.129    18.454     6.109
     3   8 O        1.638    -0.371    20.311     6.084
     4   6 C        3.755    -0.116    22.776     6.805
     5   6 C        3.859     0.129    18.452     6.109
     6   6 C        3.755    -0.117    22.805     6.809
     7   6 C        3.755    -0.116    22.776     6.805
     8   8 O        1.638    -0.373    20.344     6.088
     9   5 B        2.660     0.432    15.555     6.640
    10   6 C        3.044    -0.077    29.878     8.965
    11   6 C        2.896    -0.040    28.981     8.827
    12   6 C        3.862    -0.009    20.699     6.470
    13   1 H        0.925     0.029     2.595     2.519
    14   6 C        3.864    -0.022    20.927     6.505
    15   1 H        0.925     0.041     2.437     2.441
    16   6 C        2.863    -0.084    30.093     8.992
    17   5 B        2.663     0.432    15.545     6.636
    18   8 O        1.638    -0.373    20.351     6.089
    19   6 C        3.860     0.129    18.453     6.109
    20   6 C        3.755    -0.117    22.800     6.808
    21   6 C        3.755    -0.116    22.779     6.805
    22   6 C        3.860     0.129    18.455     6.109
    23   6 C        3.755    -0.116    22.785     6.806
    24   6 C        3.755    -0.117    22.806     6.809
    25   8 O        1.638    -0.370    20.293     6.081
    26   6 C        2.898    -0.030    28.751     8.792
    27   6 C        3.867    -0.014    20.785     6.483
    28   1 H        0.925     0.044     2.390     2.418
    29   6 C        3.071    -0.025    28.557     8.762
    30   6 C        2.890    -0.049    29.213     8.861
    31   6 C        3.864    -0.007    20.669     6.465
    32   1 H        0.925     0.029     2.599     2.521
    33   1 H        0.925     0.054     2.266     2.354
    34   1 H        0.925     0.039     2.456     2.451
    35   1 H        0.925     0.052     2.300     2.372
    36   1 H        0.925     0.052     2.291     2.367
    37   1 H        0.925     0.044     2.402     2.424
    38   1 H        0.925     0.042     2.420     2.433
    39   1 H        0.925     0.040     2.448     2.447
    40   1 H        0.925     0.052     2.295     2.369
    41   1 H        0.925     0.054     2.267     2.354
    42   1 H        0.925     0.043     2.413     2.429
    43   1 H        0.925     0.052     2.293     2.368
    44   1 H        0.925     0.043     2.403     2.424
    45   1 H        0.925     0.034     2.523     2.484
    46   1 H        0.925     0.054     2.269     2.355
    47   1 H        0.925     0.040     2.452     2.449
    48   1 H        0.925     0.052     2.294     2.368
    49   1 H        0.925     0.052     2.295     2.369
    50   1 H        0.925     0.044     2.401     2.423
    51   1 H        0.925     0.042     2.417     2.431
    52   1 H        0.925     0.043     2.413     2.429
    53   1 H        0.925     0.053     2.287     2.365
    54   1 H        0.925     0.044     2.397     2.421
    55   1 H        0.925     0.040     2.450     2.448
    56   1 H        0.925     0.052     2.294     2.369
    57   1 H        0.925     0.055     2.263     2.352
    58   1 H        0.926     0.036     2.505     2.475
    59   1 H        0.925     0.025     2.664     2.552
    60   1 H        0.925     0.022     2.702     2.571

Wiberg/Mayer (AO) data.
largest (>0.10) Wiberg bond orders for each atom

     #   Z sym  total        # sym  WBO       # sym  WBO       # sym  WBO
 ---------------------------------------------------------------------------
     1   6 C    3.994 --     2 C    0.997    34 H    0.985    33 H    0.983
                            35 H    0.982
     2   6 C    3.943 --     1 C    0.997     4 C    0.991     3 O    0.953
                             5 C    0.936
     3   8 O    2.233 --     9 B    1.128     2 C    0.953
     4   6 C    3.994 --     2 C    0.991    38 H    0.984    37 H    0.984
                            36 H    0.983
     5   6 C    3.942 --     6 C    0.996     7 C    0.991     8 O    0.952
                             2 C    0.936
     6   6 C    3.994 --     5 C    0.996    39 H    0.984    41 H    0.983
                            40 H    0.982
     7   6 C    3.995 --     5 C    0.991    42 H    0.984    44 H    0.984
                            43 H    0.983
     8   8 O    2.232 --     9 B    1.129     5 C    0.952
     9   5 B    3.378 --     8 O    1.129     3 O    1.128    10 C    1.000
    10   6 C    3.971 --    11 C    1.742     9 B    1.000    27 C    0.951
    11   6 C    3.989 --    10 C    1.742    12 C    1.109    45 H    0.965
    12   6 C    3.952 --    11 C    1.109    13 H    0.971    14 C    0.893
                            31 C    0.856
    13   1 H    0.999 --    12 C    0.971
    14   6 C    3.940 --    16 C    1.044    15 H    0.969    31 C    0.913
                            12 C    0.893
    15   1 H    0.998 --    14 C    0.969
    16   6 C    3.979 --    26 C    1.820    14 C    1.044    17 B    0.996
    17   5 B    3.375 --    25 O    1.133    18 O    1.127    16 C    0.996
    18   8 O    2.231 --    17 B    1.127    19 C    0.952
    19   6 C    3.943 --    20 C    0.997    21 C    0.991    18 O    0.952
                            22 C    0.937
    20   6 C    3.994 --    19 C    0.997    47 H    0.984    46 H    0.983
                            48 H    0.982
    21   6 C    3.994 --    19 C    0.991    51 H    0.984    50 H    0.984
                            49 H    0.983
    22   6 C    3.942 --    24 C    0.996    23 C    0.991    25 O    0.953
                            19 C    0.937
    23   6 C    3.995 --    22 C    0.991    52 H    0.984    54 H    0.984
                            53 H    0.983
    24   6 C    3.994 --    22 C    0.996    55 H    0.985    57 H    0.983
                            56 H    0.982
    25   8 O    2.236 --    17 B    1.133    22 C    0.953
    26   6 C    3.988 --    16 C    1.820    27 C    1.003    58 H    0.967
    27   6 C    3.991 --    26 C    1.003    29 C    0.976    28 H    0.969
                            10 C    0.951
    28   1 H    0.998 --    27 C    0.969
    29   6 C    3.985 --    30 C    1.813    27 C    0.976    59 H    0.969
    30   6 C    3.987 --    29 C    1.813    31 C    1.089    60 H    0.967
    31   6 C    3.948 --    30 C    1.089    32 H    0.971    14 C    0.913
                            12 C    0.856
    32   1 H    0.999 --    31 C    0.971
    33   1 H    0.997 --     1 C    0.983
    34   1 H    0.998 --     1 C    0.985
    35   1 H    0.997 --     1 C    0.982
    36   1 H    0.997 --     4 C    0.983
    37   1 H    0.998 --     4 C    0.984
    38   1 H    0.998 --     4 C    0.984
    39   1 H    0.998 --     6 C    0.984
    40   1 H    0.997 --     6 C    0.982
    41   1 H    0.997 --     6 C    0.983
    42   1 H    0.998 --     7 C    0.984
    43   1 H    0.997 --     7 C    0.983
    44   1 H    0.998 --     7 C    0.984
    45   1 H    0.999 --    11 C    0.965
    46   1 H    0.997 --    20 C    0.983
    47   1 H    0.998 --    20 C    0.984
    48   1 H    0.997 --    20 C    0.982
    49   1 H    0.997 --    21 C    0.983
    50   1 H    0.998 --    21 C    0.984
    51   1 H    0.998 --    21 C    0.984
    52   1 H    0.998 --    23 C    0.984
    53   1 H    0.997 --    23 C    0.983
    54   1 H    0.998 --    23 C    0.984
    55   1 H    0.998 --    24 C    0.985
    56   1 H    0.997 --    24 C    0.982
    57   1 H    0.997 --    24 C    0.983
    58   1 H    0.999 --    26 C    0.967
    59   1 H    0.999 --    29 C    0.969
    60   1 H    0.999 --    30 C    0.967
 ---------------------------------------------------------------------------

molecular dipole:
                 x           y           z       tot (Debye)
 q only:       -0.213      -0.556       0.158
   full:       -0.146      -0.670       0.150       1.784

           -------------------------------------------------
          | TOTAL ENERGY              -82.313988939692 Eh   |
          | GRADIENT NORM               0.000665446617 Eh/α |
          | HOMO-LUMO GAP               3.214840073773 eV   |
           -------------------------------------------------

 * finished run on 2022/07/09 at 18:32:58.058
