   * xtb version 6.5.0 (homebrew) compiled by 'nhattrup@GPGGRP-SHANNON.CHEME.CMU.EDU' on
          program call               : /opt/homebrew/bin/xtb bvl_bpin2_scan_1-6_xtb.xyz --chrg 0 --uhf 0 --opt --input xcontrol_bvl_bpin2_scan_1-6_xtb

   ID    Z sym.   atoms
    1    6 C      1, 2, 4-7, 10-12, 14, 16, 19-24, 26, 27, 29-31
    2    8 O      3, 8, 18, 25
    3    5 B      9, 17
    4    1 H      13, 15, 28, 32-60
constraining bond 12 31 to    1.6111000 Å, actual value:    1.5044348 Å
constraining bond 10 29 to    1.8333000 Å, actual value:    1.9486675 Å

          :  Hamiltonian                  GFN2-xTB          :
 * total energy  :   -82.1253278 Eh     change       -0.1033897E-08 Eh
 * total energy  :   -82.2530672 Eh     change       -0.1277394E+00 Eh
 * total energy  :   -82.2981026 Eh     change       -0.4503540E-01 Eh
 * total energy  :   -82.2987834 Eh     change       -0.6808064E-03 Eh
 * total energy  :   -82.2947577 Eh     change        0.4025706E-02 Eh
 * total energy  :   -82.2990852 Eh     change       -0.4327495E-02 Eh
 * total energy  :   -82.2991347 Eh     change       -0.4953359E-04 Eh
 * total energy  :   -82.2993756 Eh     change       -0.2409184E-03 Eh
 * total energy  :   -82.2994202 Eh     change       -0.4453257E-04 Eh
 * total energy  :   -82.2995144 Eh     change       -0.9424485E-04 Eh
 * total energy  :   -82.2997405 Eh     change       -0.1261833E-04 Eh
 * total energy  :   -82.2997536 Eh     change       -0.1309908E-04 Eh
 * total energy  :   -82.2997702 Eh     change       -0.1654574E-04 Eh
 * total energy  :   -82.2997854 Eh     change       -0.1521188E-04 Eh
 * total energy  :   -82.2998119 Eh     change       -0.2653142E-04 Eh
 * total energy  :   -82.2998313 Eh     change       -0.1939430E-04 Eh
 * total energy  :   -82.2998433 Eh     change       -0.1205731E-04 Eh
 * total energy  :   -82.2998509 Eh     change       -0.7552699E-05 Eh
 * total energy  :   -82.2998558 Eh     change       -0.4918786E-05 Eh
   *** GEOMETRY OPTIMIZATION CONVERGED AFTER 36 ITERATIONS ***

 final structure:
================
60
 xtb: 6.5.0 (homebrew)
C            3.47606183596988      -37.74826121867486       15.91852362012823
C            3.72039466460268      -38.15540726910313       17.36982769912807
O            3.24566425304697      -37.12697846602279       18.23858118846057
C            2.90084417313229      -39.41344910971528       17.68304411826110
C            5.23403922744093      -38.29239049738003       17.77381838502629
C            5.74939364997358      -39.72697583134713       17.86172092446042
C            6.17072171696911      -37.47693865898587       16.87373010106337
O            5.27965926718955      -37.69117623077459       19.06860378052090
B            4.14324665605617      -36.95889123815736       19.25623894544519
C            3.89548917498450      -36.02385611565337       20.48548166404067
C            4.92211473367088      -35.86448678408984       21.39735862178901
C            4.97281244536017      -34.86879549207956       22.41158206681077
H            5.91743067039411      -34.80743048956235       22.94045778898405
C            3.80191587651465      -34.25726638210271       23.12702960759634
H            4.05065879470077      -33.86348004851624       24.10631861314904
C            2.45440674895894      -34.88085094607166       23.13142840029842
B            1.69560136170315      -34.90168014905805       24.49475754858819
O            2.20409857218572      -34.38364284838156       25.65474762264571
C            1.33833860849075      -34.73578280122953       26.73288900777174
C            1.19858784075089      -33.54922488393350       27.68367711261237
C            2.00634651021157      -35.89945376731837       27.47664933616267
C            0.01394645673725      -35.15967638581574       26.00012856100140
C           -0.99938815325287      -34.01329473856343       25.89050541476368
C           -0.68096911436781      -36.38702576011868       26.58541105249462
O            0.45672657509475      -35.45013454585175       24.67465743035938
C            1.90573203685843      -35.43546766982731       22.04922391575084
C            2.48856843965851      -35.53402649159781       20.69283679415271
H            1.80166495902038      -36.02489481968913       20.00823938532234
C            3.18186732005520      -34.39056252679480       20.04587263262957
C            3.83858642471447      -33.36117924511080       20.66828448848388
C            4.35021210315897      -33.44075710453186       21.99707647400721
H            4.95512928352339      -32.59324322402720       22.30024099822865
H            2.40440282864093      -37.69667525922434       15.74274321080458
H            3.90775012652906      -38.48337570517844       15.24483727213517
H            3.89861946085320      -36.77122439874928       15.70766014609106
H            1.84800471279643      -39.18561835535973       17.53233209381828
H            3.03633023398353      -39.70136540074093       18.72252170585489
H            3.18071895127199      -40.23666253548457       17.03279770223252
H            5.64481623130542      -40.22338488172135       16.90082143784118
H            5.21696239940931      -40.28953376197399       18.62152914461291
H            6.80143077926139      -39.70612545091061       18.13472617068169
H            6.21915879157970      -37.89665342515186       15.87356386480125
H            7.16595332469076      -37.48967571914979       17.31203533123794
H            5.84006077728564      -36.44254520095949       16.82447121020173
H            5.86647961977543      -36.31960917704088       21.12948052454260
H            2.16357501162959      -33.35141237005260       28.14382448543673
H            0.47705393044186      -33.77624664226231       28.46386167831154
H            0.88968420754822      -32.65469525769826       27.15275163896612
H            2.99056067237093      -35.57715854360809       27.80899561398422
H            2.13902028362687      -36.74565652842925       26.80722267618215
H            1.42238284850203      -36.20069003450969       28.34108017689299
H           -1.41399725750153      -33.76064747094394       26.86179333349134
H           -1.80540922750221      -34.32793591313323       25.23166993833632
H           -0.52943554631583      -33.13762168684345       25.44999788152260
H           -0.94126260132343      -36.21152348582640       27.62576692957737
H           -0.05005326804956      -37.26685369291788       26.51213778149681
H           -1.59104004752691      -36.57786221736910       26.02222026463282
H            0.92417989634004      -35.87677888283076       22.15565266698864
H            3.00333022373592      -34.29555206758410       18.98188219675273
H            4.26448952311041      -32.58728419431045       20.04244962243123

          :  Hamiltonian                  GFN2-xTB          :
         :: total energy             -82.299855820480 Eh    ::
         :: gradient norm              0.000263474345 Eh/a0 ::
         :: HOMO-LUMO gap              2.674145988578 eV    ::
         :: SCC energy               -83.375934644432 Eh    ::
         :: -> dispersion             -0.060899143709 Eh    ::
         :: repulsion energy           1.075395099097 Eh    ::

    * Orbital Energies and Occupations

         #    Occupation            Energy/Eh            Energy/eV
      -------------------------------------------------------------
         1        2.0000           -0.6912378             -18.8095
       ...           ...                  ...                  ...
        63        2.0000           -0.4374050             -11.9024
        64        2.0000           -0.4341827             -11.8147
        65        2.0000           -0.4300267             -11.7016
        66        2.0000           -0.4224092             -11.4943
        67        2.0000           -0.4190708             -11.4035
        68        2.0000           -0.4139117             -11.2631
        69        2.0000           -0.4083663             -11.1122
        70        2.0000           -0.4000343             -10.8855
        71        2.0000           -0.3979828             -10.8297
        72        2.0000           -0.3957971             -10.7702
        73        2.0000           -0.3793556             -10.3228
        74        2.0000           -0.3717654             -10.1163
        75        2.0000           -0.3224707              -8.7749 (HOMO)
        76                         -0.2241977              -6.1007 (LUMO)
        77                         -0.2156184              -5.8673
        78                         -0.1607465              -4.3741
        79                         -0.1029349              -2.8010
        80                         -0.0744773              -2.0266
        81                          0.0004159               0.0113
        82                          0.0051525               0.1402
        83                          0.0100627               0.2738
        84                          0.0261705               0.7121
        85                          0.0297151               0.8086
        86                          0.0557796               1.5178
       ...                                ...                  ...
       144                          0.6979409              18.9919
      -------------------------------------------------------------
                  HL-Gap            0.0982731 Eh            2.6741 eV

     #   Z          covCN         q      C6AA      α(0)
     1   6 C        3.755    -0.117    22.797     6.808
     2   6 C        3.859     0.129    18.449     6.109
     3   8 O        1.638    -0.374    20.363     6.091
     4   6 C        3.755    -0.116    22.783     6.806
     5   6 C        3.859     0.129    18.451     6.109
     6   6 C        3.755    -0.118    22.814     6.811
     7   6 C        3.755    -0.116    22.777     6.805
     8   8 O        1.638    -0.371    20.306     6.083
     9   5 B        2.659     0.437    15.505     6.630
    10   6 C        3.656    -0.061    21.979     6.730
    11   6 C        2.893    -0.061    29.525     8.909
    12   6 C        3.849    -0.007    20.672     6.467
    13   1 H        0.925     0.029     2.595     2.519
    14   6 C        3.865    -0.022    20.927     6.505
    15   1 H        0.925     0.042     2.423     2.434
    16   6 C        2.863    -0.083    30.073     8.989
    17   5 B        2.662     0.432    15.550     6.637
    18   8 O        1.638    -0.373    20.340     6.088
    19   6 C        3.860     0.129    18.454     6.109
    20   6 C        3.755    -0.117    22.798     6.808
    21   6 C        3.755    -0.116    22.778     6.805
    22   6 C        3.860     0.129    18.454     6.109
    23   6 C        3.755    -0.116    22.784     6.806
    24   6 C        3.755    -0.117    22.805     6.809
    25   8 O        1.638    -0.371    20.302     6.082
    26   6 C        2.896    -0.028    28.695     8.783
    27   6 C        3.864    -0.017    20.834     6.491
    28   1 H        0.925     0.042     2.419     2.432
    29   6 C        3.684    -0.008    20.933     6.551
    30   6 C        2.889    -0.069    29.722     8.938
    31   6 C        3.852    -0.005    20.639     6.462
    32   1 H        0.925     0.029     2.596     2.520
    33   1 H        0.925     0.055     2.261     2.351
    34   1 H        0.925     0.040     2.446     2.446
    35   1 H        0.925     0.052     2.299     2.371
    36   1 H        0.925     0.053     2.287     2.365
    37   1 H        0.925     0.044     2.395     2.420
    38   1 H        0.925     0.043     2.410     2.428
    39   1 H        0.925     0.041     2.440     2.443
    40   1 H        0.925     0.053     2.287     2.365
    41   1 H        0.925     0.055     2.256     2.349
    42   1 H        0.925     0.043     2.406     2.425
    43   1 H        0.925     0.053     2.283     2.363
    44   1 H        0.925     0.044     2.403     2.424
    45   1 H        0.925     0.029     2.599     2.521
    46   1 H        0.925     0.054     2.270     2.356
    47   1 H        0.925     0.040     2.455     2.450
    48   1 H        0.925     0.052     2.295     2.369
    49   1 H        0.925     0.052     2.296     2.370
    50   1 H        0.925     0.044     2.399     2.422
    51   1 H        0.925     0.042     2.419     2.432
    52   1 H        0.925     0.043     2.415     2.430
    53   1 H        0.925     0.052     2.290     2.366
    54   1 H        0.925     0.044     2.397     2.421
    55   1 H        0.925     0.040     2.452     2.449
    56   1 H        0.925     0.052     2.294     2.368
    57   1 H        0.925     0.054     2.266     2.354
    58   1 H        0.925     0.037     2.488     2.466
    59   1 H        0.925     0.031     2.573     2.509
    60   1 H        0.925     0.017     2.783     2.609

Wiberg/Mayer (AO) data.
largest (>0.10) Wiberg bond orders for each atom

     #   Z sym  total        # sym  WBO       # sym  WBO       # sym  WBO
 ---------------------------------------------------------------------------
     1   6 C    3.994 --     2 C    0.997    34 H    0.984    33 H    0.982
                            35 H    0.982
     2   6 C    3.942 --     1 C    0.997     4 C    0.991     3 O    0.952
                             5 C    0.936
     3   8 O    2.230 --     9 B    1.129     2 C    0.952
     4   6 C    3.994 --     2 C    0.991    38 H    0.984    37 H    0.984
                            36 H    0.983
     5   6 C    3.941 --     6 C    0.997     7 C    0.991     8 O    0.950
                             2 C    0.936
     6   6 C    3.994 --     5 C    0.997    39 H    0.984    41 H    0.982
                            40 H    0.982
     7   6 C    3.995 --     5 C    0.991    42 H    0.984    44 H    0.984
                            43 H    0.983
     8   8 O    2.237 --     9 B    1.136     5 C    0.950
     9   5 B    3.378 --     8 O    1.136     3 O    1.129    10 C    0.996
    10   6 C    3.946 --    11 C    1.484     9 B    0.996    27 C    0.908
                            29 C    0.379
    11   6 C    3.980 --    10 C    1.484    12 C    1.240    45 H    0.965
                            30 C    0.163
    12   6 C    3.953 --    11 C    1.240    13 H    0.972    14 C    0.911
                            31 C    0.702
    13   1 H    0.999 --    12 C    0.972
    14   6 C    3.950 --    16 C    1.022    15 H    0.969    31 C    0.923
                            12 C    0.911
    15   1 H    0.998 --    14 C    0.969
    16   6 C    3.978 --    26 C    1.827    14 C    1.022    17 B    0.998
    17   5 B    3.376 --    25 O    1.131    18 O    1.127    16 C    0.998
    18   8 O    2.232 --    17 B    1.127    19 C    0.953
    19   6 C    3.943 --    20 C    0.997    21 C    0.991    18 O    0.953
                            22 C    0.937
    20   6 C    3.994 --    19 C    0.997    47 H    0.985    46 H    0.983
                            48 H    0.982
    21   6 C    3.994 --    19 C    0.991    51 H    0.984    50 H    0.984
                            49 H    0.983
    22   6 C    3.942 --    24 C    0.996    23 C    0.991    25 O    0.953
                            19 C    0.937
    23   6 C    3.995 --    22 C    0.991    52 H    0.984    54 H    0.984
                            53 H    0.983
    24   6 C    3.994 --    22 C    0.996    55 H    0.985    57 H    0.983
                            56 H    0.982
    25   8 O    2.234 --    17 B    1.131    22 C    0.953
    26   6 C    3.988 --    16 C    1.827    27 C    1.028    58 H    0.966
    27   6 C    3.971 --    26 C    1.028    28 H    0.968    29 C    0.941
                            10 C    0.908
    28   1 H    0.998 --    27 C    0.968
    29   6 C    3.962 --    30 C    1.526    59 H    0.971    27 C    0.941
                            10 C    0.379
    30   6 C    3.972 --    29 C    1.526    31 C    1.220    60 H    0.966
                            11 C    0.163
    31   6 C    3.950 --    30 C    1.220    32 H    0.972    14 C    0.923
                            12 C    0.702
    32   1 H    0.999 --    31 C    0.972
    33   1 H    0.997 --     1 C    0.982
    34   1 H    0.998 --     1 C    0.984
    35   1 H    0.997 --     1 C    0.982
    36   1 H    0.997 --     4 C    0.983
    37   1 H    0.998 --     4 C    0.984
    38   1 H    0.998 --     4 C    0.984
    39   1 H    0.998 --     6 C    0.984
    40   1 H    0.997 --     6 C    0.982
    41   1 H    0.997 --     6 C    0.982
    42   1 H    0.998 --     7 C    0.984
    43   1 H    0.997 --     7 C    0.983
    44   1 H    0.998 --     7 C    0.984
    45   1 H    0.999 --    11 C    0.965
    46   1 H    0.997 --    20 C    0.983
    47   1 H    0.998 --    20 C    0.985
    48   1 H    0.997 --    20 C    0.982
    49   1 H    0.997 --    21 C    0.983
    50   1 H    0.998 --    21 C    0.984
    51   1 H    0.998 --    21 C    0.984
    52   1 H    0.998 --    23 C    0.984
    53   1 H    0.997 --    23 C    0.983
    54   1 H    0.998 --    23 C    0.984
    55   1 H    0.998 --    24 C    0.985
    56   1 H    0.997 --    24 C    0.982
    57   1 H    0.997 --    24 C    0.983
    58   1 H    0.998 --    26 C    0.966
    59   1 H    0.999 --    29 C    0.971
    60   1 H    0.999 --    30 C    0.966
 ---------------------------------------------------------------------------

molecular dipole:
                 x           y           z       tot (Debye)
 q only:       -0.222      -0.506       0.014
   full:       -0.103      -0.575      -0.058       1.491

           -------------------------------------------------
          | TOTAL ENERGY              -82.299855820480 Eh   |
          | GRADIENT NORM               0.000263474345 Eh/α |
          | HOMO-LUMO GAP               2.674145988578 eV   |
           -------------------------------------------------

 * finished run on 2022/07/09 at 18:33:15.405
