   * xtb version 6.5.0 (homebrew) compiled by 'nhattrup@GPGGRP-SHANNON.CHEME.CMU.EDU' on
          program call               : /opt/homebrew/bin/xtb bvl_bpin2_scan_2-1_xtb.xyz --chrg 0 --uhf 0 --opt --input xcontrol_bvl_bpin2_scan_2-1_xtb

   ID    Z sym.   atoms
    1    6 C      1, 2, 4-7, 10-12, 14, 16, 19-24, 26, 27, 29-31
    2    8 O      3, 8, 18, 25
    3    5 B      9, 17
    4    1 H      13, 15, 28, 32-60
constraining bond 12 31 to    1.7222000 Å, actual value:    1.6071487 Å
constraining bond 10 29 to    2.3889000 Å, actual value:    2.4994423 Å

          :  Hamiltonian                  GFN2-xTB          :
 * total energy  :   -82.1379027 Eh     change       -0.2497444E-08 Eh
 * total energy  :   -82.2614038 Eh     change       -0.1235011E+00 Eh
 * total energy  :   -82.3087221 Eh     change       -0.4731831E-01 Eh
 * total energy  :   -82.3094215 Eh     change       -0.6994311E-03 Eh
 * total energy  :   -82.3097864 Eh     change       -0.3648807E-03 Eh
 * total energy  :   -82.3023277 Eh     change        0.7458748E-02 Eh
 * total energy  :   -82.3102621 Eh     change       -0.7934484E-02 Eh
 * total energy  :   -82.3104713 Eh     change       -0.2091749E-03 Eh
 * total energy  :   -82.3106220 Eh     change       -0.1506298E-03 Eh
 * total energy  :   -82.3110190 Eh     change       -0.3970927E-03 Eh
 * total energy  :   -82.3120861 Eh     change       -0.1134765E-04 Eh
 * total energy  :   -82.3121115 Eh     change       -0.2532868E-04 Eh
 * total energy  :   -82.3121221 Eh     change       -0.1066653E-04 Eh
 * total energy  :   -82.3121397 Eh     change       -0.1753234E-04 Eh
 * total energy  :   -82.3121494 Eh     change       -0.9727355E-05 Eh
 * total energy  :   -82.3121548 Eh     change       -0.5448018E-05 Eh
 * total energy  :   -82.3121684 Eh     change       -0.1356973E-04 Eh
 * total energy  :   -82.3121734 Eh     change       -0.4947915E-05 Eh
 * total energy  :   -82.3121759 Eh     change       -0.2522753E-05 Eh
   *** GEOMETRY OPTIMIZATION CONVERGED AFTER 47 ITERATIONS ***

 final structure:
================
60
 xtb: 6.5.0 (homebrew)
C            3.26550054925127      -38.06975705781330       16.16011457019704
C            3.60858898628996      -38.27886003384161       17.63328374396050
O            3.21283942062902      -37.13244842136077       18.38320686487477
C            2.79954090496495      -39.46492591488880       18.17422100486919
C            5.14398845008282      -38.39516389144917       17.94708779590617
C            5.65240523434545      -39.81925482609770       18.15972707447922
C            6.01958040848603      -37.70074800623574       16.89590864853669
O            5.28310207156871      -37.65334896465524       19.15797214518780
B            4.17511185599777      -36.86487471824987       19.31966760218193
C            4.02151339257462      -35.79932305095621       20.44079759044295
C            5.04488424616681      -35.56401062463920       21.28720149170802
C            5.11797428665097      -34.60913726014076       22.35840053531025
H            6.06248396827920      -34.55164973444342       22.87923233385697
C            3.92862169196071      -34.03682927424775       23.09930053289889
H            4.15163227457797      -33.76437658141096       24.12640615769276
C            2.58558567759790      -34.65770790260228       22.99772829788972
B            1.78972722000111      -34.84184775005154       24.32902781088271
O            2.27193320904931      -34.47748811249107       25.55667104260873
C            1.37962542116169      -34.95912191445861       26.56118575875150
C            1.22112999449844      -33.90272265436180       27.65210699259854
C            2.02669435635905      -36.21198823005533       27.16537568764235
C            0.07165280941177      -35.27856270994043       25.75003328048092
C           -0.93672561599534      -34.12277870324457       25.76542659858365
C           -0.63909290454049      -36.56776476259085       26.15589248822657
O            0.54511580582166      -35.39892663380498       24.40866097768344
C            2.06819237805629      -35.08213583804273       21.84060032942147
C            2.72483917835737      -35.01251063766922       20.49704934791006
H            2.04745535175533      -35.43094981949209       19.75066823452051
C            3.10895501866078      -33.62119295730901       20.08019928548255
C            3.87541376228206      -32.79124312304990       20.79120747638969
C            4.45096970839834      -33.05052582993285       22.08906148922838
H            5.09316194789417      -32.27641135967725       22.48352669690034
H            2.18448026002197      -38.02432786618955       16.05326042466375
H            3.64310434558649      -38.89720056930141       15.56538997058733
H            3.67948061870309      -37.13772016833462       15.78923773847585
H            1.74131660509365      -39.23166260955744       18.08053731563387
H            3.01707484634888      -39.61770757814520       19.22836984491550
H            3.01247285378179      -40.37287165086727       17.61790796860000
H            5.47049862045255      -40.41986958106455       17.27255573232412
H            5.17410092109947      -40.28249285404828       19.01650372121480
H            6.72241299706813      -39.78599210470951       18.34921873264065
H            5.99523154767562      -38.23275301818661       15.94961037051666
H            7.04334688325449      -37.67538069806072       17.26215134487415
H            5.68979418707334      -36.67486199557013       16.75178551831619
H            5.94938841314271      -36.13948494837717       21.12803235756988
H            2.17666069355617      -33.76823902717813       28.15306639137448
H            0.48373304014793      -34.22500653551616       28.38233049861205
H            0.92356865144709      -32.94687683789967       27.23347945116529
H            3.00350861253317      -35.94038846383632       27.55916414979078
H            2.17309681745525      -36.96620959988756       26.39626480699229
H            1.42152370088019      -36.61823878480664       27.97019990621909
H           -1.37176172325222      -33.99419282814519       26.75202635593642
H           -1.72890282702923      -34.34690106777207       25.05486951672147
H           -0.45559653187847      -33.20022354364651       25.45047737324323
H           -0.92131451001446      -36.52800004543801       27.20449121664398
H           -0.00898629595982      -37.43382446477668       25.98158667036570
H           -1.53729460687713      -36.67877509212797       25.55360125468604
H            1.08538909328587      -35.53258221819578       21.86919901459574
H            2.78072673056550      -33.31309948155460       19.09724071171884
H            4.14429499523786      -31.83348906742963       20.36029175427071

          :  Hamiltonian                  GFN2-xTB          :
         :: total energy             -82.312175878036 Eh    ::
         :: gradient norm              0.000707181010 Eh/a0 ::
         :: HOMO-LUMO gap              3.209177211189 eV    ::
         :: SCC energy               -83.388476307533 Eh    ::
         :: -> dispersion             -0.061246837911 Eh    ::
         :: repulsion energy           1.075313620904 Eh    ::

    * Orbital Energies and Occupations

         #    Occupation            Energy/Eh            Energy/eV
      -------------------------------------------------------------
         1        2.0000           -0.6881156             -18.7246
       ...           ...                  ...                  ...
        63        2.0000           -0.4361128             -11.8672
        64        2.0000           -0.4339355             -11.8080
        65        2.0000           -0.4268859             -11.6162
        66        2.0000           -0.4198866             -11.4257
        67        2.0000           -0.4187493             -11.3947
        68        2.0000           -0.4124867             -11.2243
        69        2.0000           -0.4058781             -11.0445
        70        2.0000           -0.3978314             -10.8255
        71        2.0000           -0.3952666             -10.7558
        72        2.0000           -0.3945511             -10.7363
        73        2.0000           -0.3891522             -10.5894
        74        2.0000           -0.3551432              -9.6639
        75        2.0000           -0.3441726              -9.3654 (HOMO)
        76                         -0.2262375              -6.1562 (LUMO)
        77                         -0.2163568              -5.8874
        78                         -0.1899457              -5.1687
        79                         -0.1043422              -2.8393
        80                         -0.0957516              -2.6055
        81                         -0.0427636              -1.1637
        82                          0.0082923               0.2256
        83                          0.0129235               0.3517
        84                          0.0284819               0.7750
        85                          0.0312517               0.8504
        86                          0.0566774               1.5423
       ...                                ...                  ...
       144                          0.6789870              18.4762
      -------------------------------------------------------------
                  HL-Gap            0.1179351 Eh            3.2092 eV

     #   Z          covCN         q      C6AA      α(0)
     1   6 C        3.755    -0.117    22.791     6.807
     2   6 C        3.860     0.129    18.451     6.109
     3   8 O        1.638    -0.373    20.335     6.087
     4   6 C        3.755    -0.116    22.770     6.804
     5   6 C        3.860     0.129    18.447     6.108
     6   6 C        3.755    -0.117    22.797     6.808
     7   6 C        3.755    -0.116    22.771     6.804
     8   8 O        1.638    -0.375    20.383     6.094
     9   5 B        2.661     0.431    15.563     6.641
    10   6 C        2.884    -0.087    30.178     9.006
    11   6 C        2.894    -0.031    28.766     8.794
    12   6 C        3.801    -0.020    20.930     6.514
    13   1 H        0.926     0.032     2.558     2.501
    14   6 C        3.863    -0.009    20.702     6.470
    15   1 H        0.925     0.045     2.381     2.413
    16   6 C        2.863    -0.086    30.146     9.000
    17   5 B        2.662     0.432    15.555     6.638
    18   8 O        1.638    -0.373    20.351     6.089
    19   6 C        3.860     0.129    18.454     6.109
    20   6 C        3.755    -0.117    22.801     6.809
    21   6 C        3.755    -0.116    22.781     6.806
    22   6 C        3.860     0.129    18.455     6.109
    23   6 C        3.755    -0.116    22.786     6.806
    24   6 C        3.755    -0.118    22.807     6.810
    25   8 O        1.638    -0.370    20.285     6.080
    26   6 C        2.900    -0.025    28.630     8.773
    27   6 C        3.863    -0.016    20.820     6.489
    28   1 H        0.924     0.045     2.380     2.413
    29   6 C        2.910    -0.035    28.868     8.810
    30   6 C        2.889    -0.038    28.948     8.821
    31   6 C        3.803    -0.017    20.883     6.506
    32   1 H        0.926     0.032     2.563     2.503
    33   1 H        0.925     0.054     2.272     2.357
    34   1 H        0.925     0.039     2.465     2.455
    35   1 H        0.925     0.052     2.301     2.372
    36   1 H        0.925     0.052     2.298     2.370
    37   1 H        0.925     0.043     2.407     2.426
    38   1 H        0.925     0.042     2.428     2.437
    39   1 H        0.925     0.039     2.458     2.452
    40   1 H        0.925     0.052     2.299     2.371
    41   1 H        0.925     0.054     2.275     2.359
    42   1 H        0.925     0.042     2.422     2.434
    43   1 H        0.925     0.051     2.304     2.374
    44   1 H        0.925     0.043     2.407     2.426
    45   1 H        0.925     0.036     2.506     2.476
    46   1 H        0.925     0.054     2.268     2.355
    47   1 H        0.925     0.040     2.450     2.448
    48   1 H        0.925     0.052     2.294     2.369
    49   1 H        0.925     0.052     2.295     2.369
    50   1 H        0.925     0.044     2.400     2.422
    51   1 H        0.925     0.043     2.415     2.430
    52   1 H        0.925     0.043     2.410     2.428
    53   1 H        0.925     0.053     2.286     2.364
    54   1 H        0.925     0.044     2.398     2.422
    55   1 H        0.925     0.040     2.448     2.447
    56   1 H        0.925     0.052     2.292     2.368
    57   1 H        0.925     0.055     2.261     2.352
    58   1 H        0.925     0.037     2.490     2.467
    59   1 H        0.926     0.026     2.650     2.546
    60   1 H        0.925     0.024     2.674     2.557

Wiberg/Mayer (AO) data.
largest (>0.10) Wiberg bond orders for each atom

     #   Z sym  total        # sym  WBO       # sym  WBO       # sym  WBO
 ---------------------------------------------------------------------------
     1   6 C    3.994 --     2 C    0.997    34 H    0.985    33 H    0.983
                            35 H    0.982
     2   6 C    3.944 --     1 C    0.997     4 C    0.990     3 O    0.954
                             5 C    0.937
     3   8 O    2.229 --     9 B    1.123     2 C    0.954
     4   6 C    3.994 --     2 C    0.990    38 H    0.985    37 H    0.984
                            36 H    0.983
     5   6 C    3.943 --     6 C    0.996     7 C    0.990     8 O    0.954
                             2 C    0.937
     6   6 C    3.994 --     5 C    0.996    39 H    0.985    41 H    0.983
                            40 H    0.982
     7   6 C    3.995 --     5 C    0.990    42 H    0.985    44 H    0.984
                            43 H    0.983
     8   8 O    2.225 --     9 B    1.121     5 C    0.954
     9   5 B    3.378 --     3 O    1.123     8 O    1.121    10 C    1.011
    10   6 C    3.973 --    11 C    1.729     9 B    1.011    27 C    0.958
    11   6 C    3.990 --    10 C    1.729    12 C    1.160    45 H    0.962
    12   6 C    3.940 --    11 C    1.160    13 H    0.974    14 C    0.916
                            31 C    0.740
    13   1 H    0.999 --    12 C    0.974
    14   6 C    3.966 --    16 C    1.035    15 H    0.968    31 C    0.936
                            12 C    0.916
    15   1 H    0.998 --    14 C    0.968
    16   6 C    3.978 --    26 C    1.824    14 C    1.035    17 B    0.997
    17   5 B    3.376 --    25 O    1.134    18 O    1.127    16 C    0.997
    18   8 O    2.232 --    17 B    1.127    19 C    0.952
    19   6 C    3.943 --    20 C    0.997    21 C    0.991    18 O    0.952
                            22 C    0.937
    20   6 C    3.994 --    19 C    0.997    47 H    0.984    46 H    0.983
                            48 H    0.982
    21   6 C    3.994 --    19 C    0.991    51 H    0.984    50 H    0.984
                            49 H    0.983
    22   6 C    3.942 --    24 C    0.996    23 C    0.991    25 O    0.952
                            19 C    0.937
    23   6 C    3.995 --    22 C    0.991    52 H    0.984    54 H    0.984
                            53 H    0.983
    24   6 C    3.994 --    22 C    0.996    55 H    0.984    57 H    0.983
                            56 H    0.982
    25   8 O    2.237 --    17 B    1.134    22 C    0.952
    26   6 C    3.986 --    16 C    1.824    27 C    1.000    58 H    0.967
    27   6 C    3.995 --    26 C    1.000    29 C    0.981    28 H    0.971
                            10 C    0.958
    28   1 H    0.998 --    27 C    0.971
    29   6 C    3.986 --    30 C    1.809    27 C    0.981    59 H    0.970
    30   6 C    3.990 --    29 C    1.809    31 C    1.134    60 H    0.965
    31   6 C    3.934 --    30 C    1.134    32 H    0.975    14 C    0.936
                            12 C    0.740
    32   1 H    0.999 --    31 C    0.975
    33   1 H    0.997 --     1 C    0.983
    34   1 H    0.998 --     1 C    0.985
    35   1 H    0.997 --     1 C    0.982
    36   1 H    0.997 --     4 C    0.983
    37   1 H    0.998 --     4 C    0.984
    38   1 H    0.998 --     4 C    0.985
    39   1 H    0.998 --     6 C    0.985
    40   1 H    0.997 --     6 C    0.982
    41   1 H    0.997 --     6 C    0.983
    42   1 H    0.998 --     7 C    0.985
    43   1 H    0.997 --     7 C    0.983
    44   1 H    0.998 --     7 C    0.984
    45   1 H    0.999 --    11 C    0.962
    46   1 H    0.997 --    20 C    0.983
    47   1 H    0.998 --    20 C    0.984
    48   1 H    0.997 --    20 C    0.982
    49   1 H    0.997 --    21 C    0.983
    50   1 H    0.998 --    21 C    0.984
    51   1 H    0.998 --    21 C    0.984
    52   1 H    0.998 --    23 C    0.984
    53   1 H    0.997 --    23 C    0.983
    54   1 H    0.998 --    23 C    0.984
    55   1 H    0.998 --    24 C    0.984
    56   1 H    0.997 --    24 C    0.982
    57   1 H    0.997 --    24 C    0.983
    58   1 H    0.999 --    26 C    0.967
    59   1 H    0.999 --    29 C    0.970
    60   1 H    0.999 --    30 C    0.965
 ---------------------------------------------------------------------------

molecular dipole:
                 x           y           z       tot (Debye)
 q only:       -0.246      -0.465       0.289
   full:       -0.169      -0.565       0.285       1.664

           -------------------------------------------------
          | TOTAL ENERGY              -82.312175878036 Eh   |
          | GRADIENT NORM               0.000707181010 Eh/α |
          | HOMO-LUMO GAP               3.209177211189 eV   |
           -------------------------------------------------

 * finished run on 2022/07/09 at 18:32:59.320
