   * xtb version 6.5.0 (homebrew) compiled by 'nhattrup@GPGGRP-SHANNON.CHEME.CMU.EDU' on
          program call               : /opt/homebrew/bin/xtb bvl_bpin2_scan_8-6_xtb.xyz --chrg 0 --uhf 0 --opt --input xcontrol_bvl_bpin2_scan_8-6_xtb

   ID    Z sym.   atoms
    1    6 C      1, 2, 4-7, 10-12, 14, 16, 19-24, 26, 27, 29-31
    2    8 O      3, 8, 18, 25
    3    5 B      9, 17
    4    1 H      13, 15, 28, 32-60
constraining bond 12 31 to    2.3889000 Å, actual value:    2.2773826 Å
constraining bond 10 29 to    1.8333000 Å, actual value:    1.9402889 Å

          :  Hamiltonian                  GFN2-xTB          :
 * total energy  :   -82.1271789 Eh     change       -0.1665256E-08 Eh
 * total energy  :   -82.2589632 Eh     change       -0.1317843E+00 Eh
 * total energy  :   -82.3022021 Eh     change       -0.4323890E-01 Eh
 * total energy  :   -82.3028590 Eh     change       -0.6569107E-03 Eh
 * total energy  :   -82.3033957 Eh     change       -0.5366348E-03 Eh
 * total energy  :   -82.3004618 Eh     change        0.2933861E-02 Eh
 * total energy  :   -82.3038759 Eh     change       -0.3414096E-02 Eh
 * total energy  :   -82.3040644 Eh     change       -0.1884382E-03 Eh
 * total energy  :   -82.3044135 Eh     change       -0.3491675E-03 Eh
 * total energy  :   -82.3046280 Eh     change       -0.2144616E-03 Eh
 * total energy  :   -82.3050539 Eh     change       -0.1582372E-04 Eh
 * total energy  :   -82.3050608 Eh     change       -0.6908956E-05 Eh
 * total energy  :   -82.3050703 Eh     change       -0.9444492E-05 Eh
 * total energy  :   -82.3050844 Eh     change       -0.1410244E-04 Eh
 * total energy  :   -82.3050943 Eh     change       -0.9927935E-05 Eh
 * total energy  :   -82.3051087 Eh     change       -0.1441396E-04 Eh
 * total energy  :   -82.3051227 Eh     change       -0.1399497E-04 Eh
 * total energy  :   -82.3051288 Eh     change       -0.6089071E-05 Eh
 * total energy  :   -82.3051317 Eh     change       -0.2846073E-05 Eh
   *** GEOMETRY OPTIMIZATION CONVERGED AFTER 37 ITERATIONS ***

 final structure:
================
60
 xtb: 6.5.0 (homebrew)
C            3.59278904373547      -37.63296430774509       15.82896114314048
C            3.78433464686697      -38.10500442978483       17.26830840977467
O            3.28834223679452      -37.11259863331536       18.16686000157441
C            2.94833466417438      -39.37044797929853       17.49807699237383
C            5.28097381921589      -38.27369957164836       17.71672675877057
C            5.79421165883091      -39.71147972429662       17.72339067777616
C            6.24700835356750      -37.39828593713487       16.90837827500208
O            5.27757108006973      -37.76419952277882       19.05033776002888
B            4.14372549062848      -37.02256734812494       19.23457690002063
C            3.85628364183729      -36.18698049539475       20.50850288083070
C            4.86290510483991      -36.12736176194678       21.54010470950351
C            4.87212404908808      -35.38860823867765       22.65493432782061
H            5.73372357950968      -35.44769387613422       23.30558360763314
C            3.82187095874384      -34.37898045033054       23.04133860759572
H            4.06618056670511      -33.96703143488099       24.02226244829955
C            2.44326486393581      -34.99147152364120       23.13489075841573
B            1.71277522187035      -34.93970337330479       24.51210718755643
O            2.25309239752780      -34.38293029323945       25.63845169615526
C            1.39466042858362      -34.65706799410668       26.74427600715182
C            1.30435635272060      -33.42264169697476       27.63844429849753
C            2.03870042384078      -35.80370960558748       27.53412093346771
C            0.04734525257988      -35.07515974620712       26.05132444157118
C           -0.93094292410759      -33.90370851215765       25.89618281724999
C           -0.67751254668361      -36.24810413161597       26.70728389662530
O            0.46191635886791      -35.44492921316106       24.73646651778454
C            1.86608773517297      -35.58651417517634       22.08691909962376
C            2.41953161996876      -35.71968382048572       20.72846326323209
H            1.73230420447804      -36.22970326390899       20.05848010563774
C            3.11832919658422      -34.57739404886720       20.05610298379309
C            3.65885863344730      -33.42399275161221       20.70708424068114
C            3.93718717383547      -33.28735302868566       22.01037709781308
H            4.36709996999981      -32.35569636045349       22.35153812215688
H            2.52834658601673      -37.57373441354630       15.61567073133123
H            4.05071903548664      -38.33710411381820       15.13967109583867
H            4.02150892262005      -36.64752671843662       15.67786120528210
H            1.90152278122530      -39.12816991934429       17.32901078878096
H            3.05325231868792      -39.70789920798585       18.52627659395661
H            3.24183205384088      -40.16409267667036       16.81768333806206
H            5.72177549835222      -40.14140160918262       16.72804570064508
H            5.23715852334784      -40.32364609170213       18.42509055207280
H            6.83665993379446      -39.71072211081557       18.03180029912981
H            6.33880429324900      -37.75417846168286       15.88662570067316
H            7.22393208391731      -37.43257319082415       17.38509060827641
H            5.90972473334681      -36.36472891128577       16.91027884808477
H            5.71713013707149      -36.76109842583612       21.33261635372368
H            2.28091860441655      -33.23360388987086       28.07736837046441
H            0.58632482993370      -33.58906741926575       28.43694001838783
H            1.01641281738830      -32.54518796844640       27.06861776312330
H            3.03718194632270      -35.49653890326853       27.83691386925269
H            2.13526745463513      -36.68481038888686       26.90465614170621
H            1.45909384775414      -36.04493634659232       28.42011872807175
H           -1.32506266181328      -33.59027076490942       26.85824409488092
H           -1.75472730962638      -34.22452898399920       25.26274930368837
H           -0.43938911075272      -33.06625892269004       25.40744767900289
H           -0.91722901548520      -36.01127579699736       27.74040744565131
H           -0.07587778856057      -37.15043827359582       26.67161259352634
H           -1.60117912480714      -36.43787432181372       26.16629248751365
H            0.88544607871810      -36.02127403258928       22.23147338033178
H            3.00395843295545      -34.53481237086074       18.98469424293724
H            3.87276084062947      -32.59154851435501       20.04569509824064

          :  Hamiltonian                  GFN2-xTB          :
         :: total energy             -82.305131650586 Eh    ::
         :: gradient norm              0.000515449575 Eh/a0 ::
         :: HOMO-LUMO gap              2.953031289176 eV    ::
         :: SCC energy               -83.382673516552 Eh    ::
         :: -> dispersion             -0.061858100677 Eh    ::
         :: repulsion energy           1.076633202542 Eh    ::

    * Orbital Energies and Occupations

         #    Occupation            Energy/Eh            Energy/eV
      -------------------------------------------------------------
         1        2.0000           -0.6903310             -18.7849
       ...           ...                  ...                  ...
        63        2.0000           -0.4339151             -11.8074
        64        2.0000           -0.4331823             -11.7875
        65        2.0000           -0.4256099             -11.5814
        66        2.0000           -0.4222381             -11.4897
        67        2.0000           -0.4190234             -11.4022
        68        2.0000           -0.4159968             -11.3198
        69        2.0000           -0.4020446             -10.9402
        70        2.0000           -0.3990772             -10.8594
        71        2.0000           -0.3968413             -10.7986
        72        2.0000           -0.3945704             -10.7368
        73        2.0000           -0.3898765             -10.6091
        74        2.0000           -0.3587692              -9.7626
        75        2.0000           -0.3392105              -9.2304 (HOMO)
        76                         -0.2306886              -6.2774 (LUMO)
        77                         -0.2133804              -5.8064
        78                         -0.1824234              -4.9640
        79                         -0.1420111              -3.8643
        80                         -0.0954810              -2.5982
        81                         -0.0550524              -1.4981
        82                          0.0076356               0.2078
        83                          0.0101941               0.2774
        84                          0.0265375               0.7221
        85                          0.0298599               0.8125
        86                          0.0550534               1.4981
       ...                                ...                  ...
       144                          0.6774791              18.4351
      -------------------------------------------------------------
                  HL-Gap            0.1085219 Eh            2.9530 eV

     #   Z          covCN         q      C6AA      α(0)
     1   6 C        3.755    -0.117    22.794     6.807
     2   6 C        3.859     0.130    18.438     6.107
     3   8 O        1.638    -0.381    20.485     6.110
     4   6 C        3.755    -0.116    22.779     6.805
     5   6 C        3.860     0.130    18.443     6.107
     6   6 C        3.755    -0.118    22.806     6.809
     7   6 C        3.755    -0.116    22.771     6.804
     8   8 O        1.638    -0.374    20.353     6.090
     9   5 B        2.659     0.436    15.517     6.633
    10   6 C        3.665    -0.069    22.103     6.743
    11   6 C        2.890    -0.041    29.018     8.832
    12   6 C        2.909    -0.038    28.954     8.823
    13   1 H        0.925     0.024     2.669     2.555
    14   6 C        3.864    -0.017    20.829     6.490
    15   1 H        0.924     0.044     2.397     2.421
    16   6 C        2.867    -0.080    30.006     8.979
    17   5 B        2.662     0.432    15.554     6.638
    18   8 O        1.638    -0.370    20.282     6.079
    19   6 C        3.860     0.129    18.456     6.110
    20   6 C        3.755    -0.117    22.796     6.808
    21   6 C        3.755    -0.116    22.775     6.805
    22   6 C        3.860     0.129    18.453     6.109
    23   6 C        3.755    -0.116    22.781     6.806
    24   6 C        3.755    -0.117    22.803     6.809
    25   8 O        1.638    -0.372    20.326     6.086
    26   6 C        2.895    -0.029    28.721     8.787
    27   6 C        3.860    -0.004    20.603     6.455
    28   1 H        0.925     0.044     2.395     2.420
    29   6 C        3.693    -0.016    21.042     6.563
    30   6 C        2.889    -0.037    28.930     8.818
    31   6 C        2.910    -0.034    28.855     8.808
    32   1 H        0.925     0.026     2.647     2.544
    33   1 H        0.925     0.054     2.269     2.355
    34   1 H        0.925     0.040     2.451     2.448
    35   1 H        0.925     0.051     2.302     2.373
    36   1 H        0.925     0.052     2.298     2.370
    37   1 H        0.925     0.044     2.401     2.423
    38   1 H        0.925     0.043     2.414     2.430
    39   1 H        0.925     0.040     2.449     2.447
    40   1 H        0.925     0.052     2.290     2.366
    41   1 H        0.925     0.055     2.261     2.351
    42   1 H        0.925     0.043     2.413     2.429
    43   1 H        0.925     0.053     2.288     2.365
    44   1 H        0.925     0.043     2.410     2.428
    45   1 H        0.925     0.034     2.529     2.487
    46   1 H        0.925     0.054     2.268     2.355
    47   1 H        0.925     0.039     2.457     2.451
    48   1 H        0.925     0.052     2.297     2.370
    49   1 H        0.925     0.052     2.294     2.368
    50   1 H        0.925     0.044     2.401     2.423
    51   1 H        0.925     0.042     2.421     2.433
    52   1 H        0.925     0.043     2.415     2.430
    53   1 H        0.925     0.052     2.294     2.368
    54   1 H        0.925     0.044     2.401     2.423
    55   1 H        0.925     0.040     2.452     2.449
    56   1 H        0.925     0.052     2.294     2.369
    57   1 H        0.925     0.054     2.268     2.355
    58   1 H        0.925     0.037     2.492     2.468
    59   1 H        0.926     0.039     2.462     2.454
    60   1 H        0.925     0.025     2.662     2.551

Wiberg/Mayer (AO) data.
largest (>0.10) Wiberg bond orders for each atom

     #   Z sym  total        # sym  WBO       # sym  WBO       # sym  WBO
 ---------------------------------------------------------------------------
     1   6 C    3.994 --     2 C    0.997    34 H    0.984    33 H    0.983
                            35 H    0.982
     2   6 C    3.943 --     1 C    0.997     4 C    0.991     3 O    0.952
                             5 C    0.937
     3   8 O    2.217 --     9 B    1.115     2 C    0.952
     4   6 C    3.994 --     2 C    0.991    38 H    0.984    37 H    0.984
                            36 H    0.983
     5   6 C    3.942 --     6 C    0.997     7 C    0.991     8 O    0.952
                             2 C    0.937
     6   6 C    3.994 --     5 C    0.997    39 H    0.984    41 H    0.982
                            40 H    0.982
     7   6 C    3.995 --     5 C    0.991    42 H    0.984    44 H    0.984
                            43 H    0.983
     8   8 O    2.227 --     9 B    1.126     5 C    0.952
     9   5 B    3.385 --     8 O    1.126     3 O    1.115    10 C    1.019
    10   6 C    3.914 --    11 C    1.152     9 B    1.019    27 C    0.895
                            29 C    0.637
    11   6 C    3.991 --    12 C    1.790    10 C    1.152    45 H    0.961
    12   6 C    3.986 --    11 C    1.790    14 C    0.978    13 H    0.970
    13   1 H    0.999 --    12 C    0.970
    14   6 C    3.995 --    31 C    0.983    16 C    0.981    12 C    0.978
                            15 H    0.972
    15   1 H    0.998 --    14 C    0.972
    16   6 C    3.976 --    26 C    1.827    17 B    1.000    14 C    0.981
    17   5 B    3.375 --    18 O    1.130    25 O    1.129    16 C    1.000
    18   8 O    2.235 --    17 B    1.130    19 C    0.953
    19   6 C    3.943 --    20 C    0.997    21 C    0.990    18 O    0.953
                            22 C    0.937
    20   6 C    3.994 --    19 C    0.997    47 H    0.985    46 H    0.983
                            48 H    0.982
    21   6 C    3.994 --    19 C    0.990    51 H    0.984    50 H    0.984
                            49 H    0.983
    22   6 C    3.943 --    24 C    0.997    23 C    0.990    25 O    0.953
                            19 C    0.937
    23   6 C    3.995 --    22 C    0.990    52 H    0.984    54 H    0.984
                            53 H    0.983
    24   6 C    3.994 --    22 C    0.997    55 H    0.984    57 H    0.983
                            56 H    0.982
    25   8 O    2.232 --    17 B    1.129    22 C    0.953
    26   6 C    3.988 --    16 C    1.827    27 C    1.051    58 H    0.965
    27   6 C    3.976 --    26 C    1.051    28 H    0.968    29 C    0.950
                            10 C    0.895
    28   1 H    0.998 --    27 C    0.968
    29   6 C    3.937 --    30 C    1.179    59 H    0.974    27 C    0.950
                            10 C    0.637
    30   6 C    3.991 --    31 C    1.768    29 C    1.179    60 H    0.963
    31   6 C    3.979 --    30 C    1.768    14 C    0.983    32 H    0.971
    32   1 H    0.999 --    31 C    0.971
    33   1 H    0.997 --     1 C    0.983
    34   1 H    0.998 --     1 C    0.984
    35   1 H    0.997 --     1 C    0.982
    36   1 H    0.997 --     4 C    0.983
    37   1 H    0.998 --     4 C    0.984
    38   1 H    0.998 --     4 C    0.984
    39   1 H    0.998 --     6 C    0.984
    40   1 H    0.997 --     6 C    0.982
    41   1 H    0.997 --     6 C    0.982
    42   1 H    0.998 --     7 C    0.984
    43   1 H    0.997 --     7 C    0.983
    44   1 H    0.998 --     7 C    0.984
    45   1 H    0.999 --    11 C    0.961
    46   1 H    0.997 --    20 C    0.983
    47   1 H    0.998 --    20 C    0.985
    48   1 H    0.997 --    20 C    0.982
    49   1 H    0.997 --    21 C    0.983
    50   1 H    0.998 --    21 C    0.984
    51   1 H    0.998 --    21 C    0.984
    52   1 H    0.998 --    23 C    0.984
    53   1 H    0.997 --    23 C    0.983
    54   1 H    0.998 --    23 C    0.984
    55   1 H    0.998 --    24 C    0.984
    56   1 H    0.997 --    24 C    0.982
    57   1 H    0.997 --    24 C    0.983
    58   1 H    0.998 --    26 C    0.965
    59   1 H    0.998 --    29 C    0.974
    60   1 H    0.999 --    30 C    0.963
 ---------------------------------------------------------------------------

molecular dipole:
                 x           y           z       tot (Debye)
 q only:       -0.306      -0.376      -0.070
   full:       -0.265      -0.445      -0.168       1.383

           -------------------------------------------------
          | TOTAL ENERGY              -82.305131650586 Eh   |
          | GRADIENT NORM               0.000515449575 Eh/α |
          | HOMO-LUMO GAP               2.953031289176 eV   |
           -------------------------------------------------

 * finished run on 2022/07/09 at 18:33:40.013
