   * xtb version 6.5.0 (homebrew) compiled by 'nhattrup@GPGGRP-SHANNON.CHEME.CMU.EDU' on
          program call               : /opt/homebrew/bin/xtb bvl_bpin2_scan_7-4_xtb.xyz --chrg 0 --uhf 0 --opt --input xcontrol_bvl_bpin2_scan_7-4_xtb

   ID    Z sym.   atoms
    1    6 C      1, 2, 4-7, 10-12, 14, 16, 19-24, 26, 27, 29-31
    2    8 O      3, 8, 18, 25
    3    5 B      9, 17
    4    1 H      13, 15, 28, 32-60
constraining bond 12 31 to    2.2778000 Å, actual value:    2.1646464 Å
constraining bond 10 29 to    2.0556000 Å, actual value:    2.1641363 Å

          :  Hamiltonian                  GFN2-xTB          :
 * total energy  :   -82.1140076 Eh     change       -0.1948351E-08 Eh
 * total energy  :   -82.2462973 Eh     change       -0.1322898E+00 Eh
 * total energy  :   -82.2892066 Eh     change       -0.4290925E-01 Eh
 * total energy  :   -82.2899181 Eh     change       -0.7115825E-03 Eh
 * total energy  :   -82.2904311 Eh     change       -0.5129401E-03 Eh
 * total energy  :   -82.2869640 Eh     change        0.3467088E-02 Eh
 * total energy  :   -82.2909081 Eh     change       -0.3944136E-02 Eh
 * total energy  :   -82.2911530 Eh     change       -0.2448645E-03 Eh
 * total energy  :   -82.2913058 Eh     change       -0.1527862E-03 Eh
 * total energy  :   -82.2914961 Eh     change       -0.1903301E-03 Eh
 * total energy  :   -82.2917347 Eh     change       -0.1412867E-04 Eh
 * total energy  :   -82.2917402 Eh     change       -0.5507253E-05 Eh
 * total energy  :   -82.2917526 Eh     change       -0.1241454E-04 Eh
 * total energy  :   -82.2917556 Eh     change       -0.2946872E-05 Eh
 * total energy  :   -82.2917683 Eh     change       -0.1271327E-04 Eh
 * total energy  :   -82.2917838 Eh     change       -0.1547429E-04 Eh
 * total energy  :   -82.2917900 Eh     change       -0.6201030E-05 Eh
 * total energy  :   -82.2917985 Eh     change       -0.8493687E-05 Eh
 * total energy  :   -82.2918023 Eh     change       -0.3884698E-05 Eh
   *** GEOMETRY OPTIMIZATION CONVERGED AFTER 26 ITERATIONS ***

 final structure:
================
60
 xtb: 6.5.0 (homebrew)
C            3.51959122724554      -37.71296821958567       15.90105443039062
C            3.74916967842972      -38.14859782194830       17.34630701576474
O            3.26963013855649      -37.13846843205522       18.23228755434650
C            2.92568315902250      -39.41220597261050       17.62739654604551
C            5.25705024680342      -38.30015278692856       17.76240294432653
C            5.77667892130778      -39.73571568542111       17.78937329967827
C            6.19927208232873      -37.44052942295483       16.90994309278951
O            5.28366369275230      -37.76067939080740       19.08314877944978
B            4.14741859123212      -37.02264140797650       19.28028474584326
C            3.86813025217554      -36.19221874027325       20.55542701633215
C            4.89141697422795      -36.02043783565810       21.51327958299421
C            4.90678489056940      -35.23189011820465       22.61574504514451
H            5.82340304494099      -35.17317242379583       23.18603387863689
C            3.81763131557198      -34.27790080768617       23.03500492056896
H            4.04912088307877      -33.86850958854579       24.01974254198415
C            2.44098840746502      -34.88645850510067       23.10232733157731
B            1.70281195508591      -34.88046708590392       24.47674732688510
O            2.23853610787553      -34.37516959168332       25.62955995057668
C            1.38256242260935      -34.71399266056905       26.71973704718047
C            1.28402699181040      -33.53127464964810       27.68037799078326
C            2.03533393394457      -35.89793357071944       27.44477679649530
C            0.03743173234844      -35.10347589686441       26.00621283687904
C           -0.94983117280933      -33.93289337290361       25.91533109303952
C           -0.67829801527545      -36.31612127984042       26.59689607005898
O            0.45375005971736      -35.39995816046181       24.67359782608889
C            1.88064000222673      -35.46408569644370       22.03938228001227
C            2.48039217869677      -35.58265044918269       20.68865352522231
H            1.79423335407502      -36.08589082711528       20.00868308729843
C            3.07205942265306      -34.37504899797541       20.03093835824640
C            3.74001342069103      -33.32457929140183       20.66754409150123
C            4.04433707098272      -33.22069373519680       21.98838388147084
H            4.63023838768304      -32.36991621433418       22.30721346310431
H            2.44971663689294      -37.65839877519926       15.71522492361123
H            3.95883214618153      -38.43468108091881       15.21769954645345
H            3.94389136054863      -36.73186821273708       15.71357156850974
H            1.87377025938164      -39.17907699656544       17.47812525567942
H            3.05736613081109      -39.72255034090094       18.66104227061856
H            3.20640841531168      -40.22180859378881       16.96056734021779
H            5.67950425095934      -40.18995133172665       16.80696867515688
H            5.24096958209319      -40.33256475951010       18.52030473981382
H            6.82704348902106      -39.72416079084891       18.06964998114959
H            6.26669539258715      -37.82002664496347       15.89478661505593
H            7.18802161976076      -37.46060093012632       17.36255611431968
H            5.85810252590721      -36.40833366716343       16.89620419909280
H            5.79435502603886      -36.57571599937484       21.28542865550842
H            2.25867554311910      -33.36086646882107       28.13103029923330
H            0.56585187276802      -33.74598228945518       28.46715726534345
H            0.99131920993071      -32.62543622859854       27.15948289074340
H            3.03129810736244      -35.60058691524878       27.76510327146520
H            2.13917945536113      -36.74119875379542       26.76649870706695
H            1.45730889930001      -36.19331781309850       28.31525102821668
H           -1.34695385785694      -33.67667963894377       26.89300489512824
H           -1.77072383615351      -34.22463205870829       25.26435826990474
H           -0.46490108780433      -33.06555002783000       25.47454094013405
H           -0.92327686673323      -36.13739308885673       27.64041612983756
H           -0.06830369342387      -37.20974613328827       26.51461822183387
H           -1.59848684911990      -36.48491648991364       26.04313854941060
H            0.89884730801424      -35.90278460568718       22.15700569562983
H            2.99650170705946      -34.35621674319610       18.95502725731771
H            4.07887589465922      -32.52521598093835       20.01721234283211

          :  Hamiltonian                  GFN2-xTB          :
         :: total energy             -82.291802340772 Eh    ::
         :: gradient norm              0.000771748345 Eh/a0 ::
         :: HOMO-LUMO gap              2.266032746664 eV    ::
         :: SCC energy               -83.369153573282 Eh    ::
         :: -> dispersion             -0.062718225282 Eh    ::
         :: repulsion energy           1.076547520090 Eh    ::

    * Orbital Energies and Occupations

         #    Occupation            Energy/Eh            Energy/eV
      -------------------------------------------------------------
         1        2.0000           -0.6884278             -18.7331
       ...           ...                  ...                  ...
        63        2.0000           -0.4339918             -11.8095
        64        2.0000           -0.4324040             -11.7663
        65        2.0000           -0.4229369             -11.5087
        66        2.0000           -0.4217670             -11.4769
        67        2.0000           -0.4184874             -11.3876
        68        2.0000           -0.4161228             -11.3233
        69        2.0000           -0.4021079             -10.9419
        70        2.0000           -0.3975423             -10.8177
        71        2.0000           -0.3964997             -10.7893
        72        2.0000           -0.3931652             -10.6986
        73        2.0000           -0.3913499             -10.6492
        74        2.0000           -0.3606212              -9.8130
        75        2.0000           -0.3353850              -9.1263 (HOMO)
        76                         -0.2521098              -6.8603 (LUMO)
        77                         -0.2187629              -5.9528
        78                         -0.1848821              -5.0309
        79                         -0.1406511              -3.8273
        80                         -0.0961729              -2.6170
        81                         -0.0788740              -2.1463
        82                          0.0098151               0.2671
        83                          0.0108879               0.2963
        84                          0.0283782               0.7722
        85                          0.0297711               0.8101
        86                          0.0571314               1.5546
       ...                                ...                  ...
       144                          0.6812814              18.5386
      -------------------------------------------------------------
                  HL-Gap            0.0832752 Eh            2.2660 eV

     #   Z          covCN         q      C6AA      α(0)
     1   6 C        3.755    -0.117    22.788     6.807
     2   6 C        3.859     0.130    18.438     6.107
     3   8 O        1.638    -0.379    20.464     6.106
     4   6 C        3.755    -0.116    22.775     6.805
     5   6 C        3.859     0.130    18.442     6.107
     6   6 C        3.755    -0.117    22.802     6.809
     7   6 C        3.755    -0.115    22.761     6.803
     8   8 O        1.638    -0.375    20.372     6.093
     9   5 B        2.659     0.432    15.558     6.641
    10   6 C        3.246    -0.074    28.776     8.689
    11   6 C        2.891    -0.041    29.017     8.832
    12   6 C        2.959    -0.034    28.842     8.809
    13   1 H        0.926     0.026     2.641     2.541
    14   6 C        3.863    -0.014    20.790     6.484
    15   1 H        0.924     0.046     2.376     2.410
    16   6 C        2.865    -0.081    30.027     8.982
    17   5 B        2.662     0.431    15.558     6.639
    18   8 O        1.638    -0.370    20.293     6.081
    19   6 C        3.860     0.129    18.456     6.110
    20   6 C        3.755    -0.117    22.797     6.808
    21   6 C        3.755    -0.116    22.778     6.805
    22   6 C        3.860     0.129    18.455     6.109
    23   6 C        3.755    -0.116    22.783     6.806
    24   6 C        3.755    -0.117    22.805     6.809
    25   8 O        1.638    -0.371    20.302     6.082
    26   6 C        2.896    -0.028    28.689     8.782
    27   6 C        3.861    -0.006    20.653     6.463
    28   1 H        0.925     0.047     2.357     2.401
    29   6 C        3.274    -0.018    27.080     8.385
    30   6 C        2.888    -0.040    28.990     8.827
    31   6 C        2.960    -0.029    28.726     8.791
    32   1 H        0.926     0.028     2.621     2.531
    33   1 H        0.925     0.054     2.272     2.357
    34   1 H        0.925     0.039     2.458     2.452
    35   1 H        0.925     0.051     2.308     2.376
    36   1 H        0.925     0.052     2.301     2.372
    37   1 H        0.925     0.043     2.403     2.424
    38   1 H        0.925     0.042     2.421     2.433
    39   1 H        0.925     0.040     2.455     2.450
    40   1 H        0.925     0.052     2.293     2.368
    41   1 H        0.925     0.054     2.268     2.355
    42   1 H        0.925     0.042     2.419     2.432
    43   1 H        0.925     0.052     2.297     2.370
    44   1 H        0.925     0.042     2.417     2.431
    45   1 H        0.925     0.034     2.526     2.486
    46   1 H        0.925     0.054     2.269     2.355
    47   1 H        0.925     0.040     2.455     2.450
    48   1 H        0.925     0.052     2.296     2.369
    49   1 H        0.925     0.052     2.295     2.369
    50   1 H        0.925     0.044     2.399     2.422
    51   1 H        0.925     0.042     2.419     2.432
    52   1 H        0.925     0.043     2.415     2.430
    53   1 H        0.925     0.052     2.291     2.367
    54   1 H        0.925     0.044     2.400     2.422
    55   1 H        0.925     0.040     2.452     2.449
    56   1 H        0.925     0.052     2.293     2.368
    57   1 H        0.925     0.054     2.265     2.354
    58   1 H        0.925     0.038     2.480     2.463
    59   1 H        0.926     0.036     2.498     2.471
    60   1 H        0.925     0.025     2.664     2.552

Wiberg/Mayer (AO) data.
largest (>0.10) Wiberg bond orders for each atom

     #   Z sym  total        # sym  WBO       # sym  WBO       # sym  WBO
 ---------------------------------------------------------------------------
     1   6 C    3.994 --     2 C    0.997    34 H    0.985    33 H    0.983
                            35 H    0.982
     2   6 C    3.943 --     1 C    0.997     4 C    0.990     3 O    0.954
                             5 C    0.937
     3   8 O    2.216 --     9 B    1.112     2 C    0.954
     4   6 C    3.994 --     2 C    0.990    38 H    0.984    37 H    0.984
                            36 H    0.983
     5   6 C    3.943 --     6 C    0.997     7 C    0.990     8 O    0.953
                             2 C    0.937
     6   6 C    3.994 --     5 C    0.997    39 H    0.985    41 H    0.983
                            40 H    0.982
     7   6 C    3.994 --     5 C    0.990    42 H    0.984    44 H    0.984
                            43 H    0.983
     8   8 O    2.224 --     9 B    1.120     5 C    0.953
     9   5 B    3.388 --     8 O    1.120     3 O    1.112    10 C    1.026
    10   6 C    3.924 --    11 C    1.291     9 B    1.026    27 C    0.924
                            29 C    0.426    31 C    0.135
    11   6 C    3.991 --    12 C    1.639    10 C    1.291    45 H    0.961
    12   6 C    3.973 --    11 C    1.639    13 H    0.971    14 C    0.970
                            31 C    0.177    29 C    0.124
    13   1 H    0.999 --    12 C    0.971
    14   6 C    3.993 --    16 C    0.990    31 C    0.979    12 C    0.970
                            15 H    0.970
    15   1 H    0.998 --    14 C    0.970
    16   6 C    3.976 --    26 C    1.847    17 B    0.999    14 C    0.990
    17   5 B    3.376 --    25 O    1.131    18 O    1.129    16 C    0.999
    18   8 O    2.235 --    17 B    1.129    19 C    0.953
    19   6 C    3.943 --    20 C    0.997    21 C    0.991    18 O    0.953
                            22 C    0.937
    20   6 C    3.994 --    19 C    0.997    47 H    0.985    46 H    0.983
                            48 H    0.982
    21   6 C    3.994 --    19 C    0.991    51 H    0.984    50 H    0.984
                            49 H    0.983
    22   6 C    3.943 --    24 C    0.996    23 C    0.990    25 O    0.953
                            19 C    0.937
    23   6 C    3.995 --    22 C    0.990    52 H    0.984    54 H    0.984
                            53 H    0.983
    24   6 C    3.994 --    22 C    0.996    55 H    0.985    57 H    0.983
                            56 H    0.982
    25   8 O    2.235 --    17 B    1.131    22 C    0.953
    26   6 C    3.988 --    16 C    1.847    27 C    1.027    58 H    0.966
    27   6 C    3.987 --    26 C    1.027    29 C    0.970    28 H    0.968
                            10 C    0.924
    28   1 H    0.998 --    27 C    0.968
    29   6 C    3.942 --    30 C    1.336    59 H    0.973    27 C    0.970
                            10 C    0.426    12 C    0.124
    30   6 C    3.991 --    31 C    1.607    29 C    1.336    60 H    0.963
    31   6 C    3.961 --    30 C    1.607    14 C    0.979    32 H    0.972
                            12 C    0.177    10 C    0.135
    32   1 H    0.999 --    31 C    0.972
    33   1 H    0.997 --     1 C    0.983
    34   1 H    0.998 --     1 C    0.985
    35   1 H    0.997 --     1 C    0.982
    36   1 H    0.997 --     4 C    0.983
    37   1 H    0.998 --     4 C    0.984
    38   1 H    0.998 --     4 C    0.984
    39   1 H    0.998 --     6 C    0.985
    40   1 H    0.997 --     6 C    0.982
    41   1 H    0.997 --     6 C    0.983
    42   1 H    0.998 --     7 C    0.984
    43   1 H    0.997 --     7 C    0.983
    44   1 H    0.998 --     7 C    0.984
    45   1 H    0.999 --    11 C    0.961
    46   1 H    0.997 --    20 C    0.983
    47   1 H    0.998 --    20 C    0.985
    48   1 H    0.997 --    20 C    0.982
    49   1 H    0.997 --    21 C    0.983
    50   1 H    0.998 --    21 C    0.984
    51   1 H    0.998 --    21 C    0.984
    52   1 H    0.998 --    23 C    0.984
    53   1 H    0.997 --    23 C    0.983
    54   1 H    0.998 --    23 C    0.984
    55   1 H    0.998 --    24 C    0.985
    56   1 H    0.997 --    24 C    0.982
    57   1 H    0.997 --    24 C    0.983
    58   1 H    0.998 --    26 C    0.966
    59   1 H    0.998 --    29 C    0.973
    60   1 H    0.999 --    30 C    0.963
 ---------------------------------------------------------------------------

molecular dipole:
                 x           y           z       tot (Debye)
 q only:       -0.305      -0.353       0.043
   full:       -0.162      -0.416      -0.091       1.159

           -------------------------------------------------
          | TOTAL ENERGY              -82.291802340772 Eh   |
          | GRADIENT NORM               0.000771748345 Eh/α |
          | HOMO-LUMO GAP               2.266032746664 eV   |
           -------------------------------------------------

 * finished run on 2022/07/09 at 18:33:30.170
