   * xtb version 6.5.0 (homebrew) compiled by 'nhattrup@GPGGRP-SHANNON.CHEME.CMU.EDU' on
          program call               : /opt/homebrew/bin/xtb bvl_bpin2_scan_6-7_xtb.xyz --chrg 0 --uhf 0 --opt --input xcontrol_bvl_bpin2_scan_6-7_xtb

   ID    Z sym.   atoms
    1    6 C      1, 2, 4-7, 10-12, 14, 16, 19-24, 26, 27, 29-31
    2    8 O      3, 8, 18, 25
    3    5 B      9, 17
    4    1 H      13, 15, 28, 32-60
constraining bond 12 31 to    2.1667000 Å, actual value:    2.0568447 Å
constraining bond 10 29 to    1.7222000 Å, actual value:    1.8303961 Å

          :  Hamiltonian                  GFN2-xTB          :
 * total energy  :   -82.1322398 Eh     change       -0.1171500E-08 Eh
 * total energy  :   -82.2647374 Eh     change       -0.1324976E+00 Eh
 * total energy  :   -82.3077880 Eh     change       -0.4305066E-01 Eh
 * total energy  :   -82.3085074 Eh     change       -0.7193415E-03 Eh
 * total energy  :   -82.3088968 Eh     change       -0.3894479E-03 Eh
 * total energy  :   -82.3051699 Eh     change        0.3726892E-02 Eh
 * total energy  :   -82.3094400 Eh     change       -0.4270030E-02 Eh
 * total energy  :   -82.3095975 Eh     change       -0.1575539E-03 Eh
 * total energy  :   -82.3097720 Eh     change       -0.1744969E-03 Eh
 * total energy  :   -82.3100168 Eh     change       -0.2447309E-03 Eh
 * total energy  :   -82.3100575 Eh     change       -0.4076902E-04 Eh
 * total energy  :   -82.3100868 Eh     change       -0.2929531E-04 Eh
 * total energy  :   -82.3101093 Eh     change       -0.2251004E-04 Eh
 * total energy  :   -82.3101285 Eh     change       -0.1918318E-04 Eh
 * total energy  :   -82.3101417 Eh     change       -0.1319444E-04 Eh
 * total energy  :   -82.3101525 Eh     change       -0.1078049E-04 Eh
 * total energy  :   -82.3101594 Eh     change       -0.6871592E-05 Eh
 * total energy  :   -82.3101679 Eh     change       -0.8538431E-05 Eh
 * total energy  :   -82.3101717 Eh     change       -0.3851541E-05 Eh
   *** GEOMETRY OPTIMIZATION CONVERGED AFTER 19 ITERATIONS ***

 final structure:
================
60
 xtb: 6.5.0 (homebrew)
C            3.47501239044326      -37.74312508608251       15.90710454086346
C            3.72051504246466      -38.13421545717418       17.36250447490868
O            3.26015131583749      -37.08754483400925       18.21765026347425
C            2.89025731121015      -39.38069593377770       17.69403982292307
C            5.23297477640866      -38.28226966140455       17.76560575055236
C            5.73814654188586      -39.72011689247593       17.85874655201627
C            6.17283939961031      -37.47567767836760       16.86101507547064
O            5.28415695045327      -37.67648136109681       19.05826435432521
B            4.15951670624430      -36.92322923825998       19.23661472734073
C            3.90959702264739      -35.99480274203284       20.46314192312087
C            4.93058933323011      -35.92783269559325       21.48324933245771
C            4.94609182048378      -35.16418262844557       22.58682289197285
H            5.84571513769522      -35.17179440784236       23.19023619018540
C            3.85464469155238      -34.26232688151653       23.05715712286989
H            4.08506141610236      -33.86431152180188       24.04584618580077
C            2.47636899605554      -34.86744417976296       23.10899034322198
B            1.72868101039969      -34.87552450747437       24.47726906375092
O            2.23154078338025      -34.35823183494149       25.63959271890700
C            1.36449754320126      -34.71656022948079       26.71496102003079
C            1.21140835287252      -33.53218589976546       27.66658483033830
C            2.03767149302795      -35.87598366580655       27.46082680080012
C            0.04429920588384      -35.14973117041541       25.97933765928800
C           -0.98359495024873      -34.01560001606481       25.87607875516144
C           -0.63811385493391      -36.38840032710097       26.55608565355633
O            0.49025124929066      -35.42874460787856       24.65345861899334
C            1.90391591531897      -35.43214983441222       22.04286528010257
C            2.46805607728254      -35.55570132680548       20.69242789012600
H            1.78637620625787      -36.04674806239116       20.00468633399438
C            3.25420900865497      -34.46422427709221       20.03779389267035
C            3.83898393953519      -33.33510957667121       20.70068509153375
C            4.12958927301360      -33.23998356149449       22.00902158121316
H            4.65588615015788      -32.35372213960940       22.34231763026923
H            2.40304606426829      -37.68303384364268       15.73555071405264
H            3.89658980943002      -38.49051324824072       15.24067984305795
H            3.90589345737832      -36.77271680207040       15.68283320648824
H            1.83875943705707      -39.14572635031375       17.54523523234570
H            3.02805375507749      -39.65886513812702       18.73588030681697
H            3.16003605337194      -40.21360562220698       17.05173495382969
H            5.62754990770685      -40.22122598129319       16.90090537431309
H            5.20367003795328      -40.27511457974120       18.62278550172010
H            6.79112318992276      -39.70567030620131       18.12870646597077
H            6.21726295714901      -37.89926810097701       15.86228013554392
H            7.16870270696251      -37.49130494189374       17.29774305653126
H            5.84671945134713      -36.43989949507228       16.80843461147649
H            5.82024051796460      -36.49481359837186       21.23902624327738
H            2.17240438951853      -33.32632465683616       28.13146438053070
H            0.48858358377204      -33.76684531752476       28.44344642822051
H            0.89624315061655      -32.63970375223481       27.13587343060913
H            3.01775263448199      -35.54715624616127       27.79881367121907
H            2.17982632748002      -36.72049603367638       26.79116516616320
H            1.45141839722595      -36.18270628898663       28.32187554606793
H           -1.40051612667663      -33.77312769476788       26.84898838065915
H           -1.78636852517757      -34.33831238447191       25.21708914587541
H           -0.52662304630053      -33.13142057115499       25.43901028383214
H           -0.90569291658270      -36.22145814158647       27.59594893293381
H            0.00348186401235      -37.26026840598665       26.48108397036783
H           -1.54307694070875      -36.58711683621298       25.98732596422111
H            0.91795186746146      -35.85982436342081       22.17044214487943
H            3.11853459494644      -34.37825540517581       18.96965444883085
H            4.16686714492239      -32.53742365660145       20.04488008792569

          :  Hamiltonian                  GFN2-xTB          :
         :: total energy             -82.310171746031 Eh    ::
         :: gradient norm              0.000838891033 Eh/a0 ::
         :: HOMO-LUMO gap              3.319308012318 eV    ::
         :: SCC energy               -83.390808452277 Eh    ::
         :: -> dispersion             -0.061882773307 Eh    ::
         :: repulsion energy           1.079842020356 Eh    ::

    * Orbital Energies and Occupations

         #    Occupation            Energy/Eh            Energy/eV
      -------------------------------------------------------------
         1        2.0000           -0.6918476             -18.8261
       ...           ...                  ...                  ...
        63        2.0000           -0.4346267             -11.8268
        64        2.0000           -0.4334403             -11.7945
        65        2.0000           -0.4287906             -11.6680
        66        2.0000           -0.4229611             -11.5094
        67        2.0000           -0.4186731             -11.3927
        68        2.0000           -0.4141707             -11.2702
        69        2.0000           -0.4039906             -10.9931
        70        2.0000           -0.4003797             -10.8949
        71        2.0000           -0.3973043             -10.8112
        72        2.0000           -0.3951506             -10.7526
        73        2.0000           -0.3846371             -10.4665
        74        2.0000           -0.3517543              -9.5717
        75        2.0000           -0.3472234              -9.4484 (HOMO)
        76                         -0.2252410              -6.1291 (LUMO)
        77                         -0.1973832              -5.3711
        78                         -0.1839186              -5.0047
        79                         -0.1391939              -3.7877
        80                         -0.0958411              -2.6080
        81                         -0.0212519              -0.5783
        82                          0.0050757               0.1381
        83                          0.0107510               0.2925
        84                          0.0253606               0.6901
        85                          0.0301034               0.8192
        86                          0.0539096               1.4670
       ...                                ...                  ...
       144                          0.6860025              18.6671
      -------------------------------------------------------------
                  HL-Gap            0.1219823 Eh            3.3193 eV

     #   Z          covCN         q      C6AA      α(0)
     1   6 C        3.755    -0.117    22.798     6.808
     2   6 C        3.858     0.130    18.442     6.107
     3   8 O        1.638    -0.379    20.447     6.104
     4   6 C        3.755    -0.116    22.784     6.806
     5   6 C        3.860     0.129    18.448     6.108
     6   6 C        3.755    -0.118    22.811     6.810
     7   6 C        3.755    -0.116    22.777     6.805
     8   8 O        1.638    -0.372    20.317     6.084
     9   5 B        2.657     0.439    15.493     6.628
    10   6 C        3.774    -0.065    21.777     6.649
    11   6 C        2.890    -0.048    29.197     8.859
    12   6 C        3.071    -0.030    28.678     8.781
    13   1 H        0.925     0.024     2.675     2.558
    14   6 C        3.866    -0.015    20.797     6.485
    15   1 H        0.924     0.043     2.404     2.425
    16   6 C        2.865    -0.083    30.075     8.989
    17   5 B        2.661     0.432    15.560     6.640
    18   8 O        1.638    -0.371    20.301     6.082
    19   6 C        3.859     0.129    18.455     6.109
    20   6 C        3.755    -0.117    22.795     6.808
    21   6 C        3.755    -0.116    22.774     6.805
    22   6 C        3.859     0.129    18.453     6.109
    23   6 C        3.755    -0.116    22.780     6.805
    24   6 C        3.755    -0.117    22.802     6.809
    25   8 O        1.638    -0.373    20.333     6.087
    26   6 C        2.896    -0.028    28.690     8.782
    27   6 C        3.861    -0.009    20.699     6.470
    28   1 H        0.925     0.043     2.405     2.425
    29   6 C        3.803    -0.012    20.791     6.492
    30   6 C        2.889    -0.046    29.147     8.851
    31   6 C        3.072    -0.027    28.590     8.767
    32   1 H        0.925     0.025     2.661     2.551
    33   1 H        0.925     0.055     2.262     2.352
    34   1 H        0.925     0.040     2.446     2.446
    35   1 H        0.925     0.052     2.300     2.372
    36   1 H        0.925     0.052     2.291     2.367
    37   1 H        0.925     0.044     2.395     2.420
    38   1 H        0.925     0.043     2.409     2.427
    39   1 H        0.925     0.041     2.442     2.444
    40   1 H        0.925     0.053     2.287     2.365
    41   1 H        0.925     0.055     2.256     2.349
    42   1 H        0.925     0.043     2.406     2.426
    43   1 H        0.925     0.053     2.282     2.362
    44   1 H        0.925     0.043     2.406     2.425
    45   1 H        0.925     0.032     2.558     2.501
    46   1 H        0.925     0.054     2.270     2.356
    47   1 H        0.925     0.039     2.457     2.451
    48   1 H        0.925     0.052     2.298     2.370
    49   1 H        0.925     0.052     2.295     2.369
    50   1 H        0.925     0.044     2.401     2.423
    51   1 H        0.925     0.042     2.422     2.434
    52   1 H        0.925     0.042     2.418     2.432
    53   1 H        0.925     0.052     2.295     2.369
    54   1 H        0.925     0.044     2.400     2.423
    55   1 H        0.925     0.040     2.455     2.450
    56   1 H        0.925     0.052     2.297     2.370
    57   1 H        0.925     0.054     2.270     2.356
    58   1 H        0.925     0.038     2.482     2.464
    59   1 H        0.926     0.036     2.506     2.476
    60   1 H        0.925     0.022     2.697     2.568

Wiberg/Mayer (AO) data.
largest (>0.10) Wiberg bond orders for each atom

     #   Z sym  total        # sym  WBO       # sym  WBO       # sym  WBO
 ---------------------------------------------------------------------------
     1   6 C    3.994 --     2 C    0.997    34 H    0.984    33 H    0.982
                            35 H    0.982
     2   6 C    3.942 --     1 C    0.997     4 C    0.991     3 O    0.951
                             5 C    0.937
     3   8 O    2.223 --     9 B    1.122     2 C    0.951
     4   6 C    3.994 --     2 C    0.991    38 H    0.984    37 H    0.984
                            36 H    0.983
     5   6 C    3.941 --     6 C    0.997     7 C    0.991     8 O    0.950
                             2 C    0.937
     6   6 C    3.994 --     5 C    0.997    39 H    0.984    41 H    0.982
                            40 H    0.982
     7   6 C    3.995 --     5 C    0.991    42 H    0.984    44 H    0.984
                            43 H    0.983
     8   8 O    2.232 --     9 B    1.133     5 C    0.950
     9   5 B    3.380 --     8 O    1.133     3 O    1.122    10 C    1.006
    10   6 C    3.923 --    11 C    1.152     9 B    1.006    27 C    0.886
                            29 C    0.682
    11   6 C    3.989 --    12 C    1.754    10 C    1.152    45 H    0.963
    12   6 C    3.983 --    11 C    1.754    14 C    0.970    13 H    0.969
                            31 C    0.127
    13   1 H    0.999 --    12 C    0.969
    14   6 C    3.992 --    16 C    0.987    31 C    0.976    15 H    0.970
                            12 C    0.970
    15   1 H    0.998 --    14 C    0.970
    16   6 C    3.976 --    26 C    1.826    17 B    1.002    14 C    0.987
    17   5 B    3.376 --    18 O    1.128    25 O    1.127    16 C    1.002
    18   8 O    2.233 --    17 B    1.128    19 C    0.953
    19   6 C    3.943 --    20 C    0.997    21 C    0.991    18 O    0.953
                            22 C    0.936
    20   6 C    3.994 --    19 C    0.997    47 H    0.984    46 H    0.983
                            48 H    0.982
    21   6 C    3.994 --    19 C    0.991    51 H    0.984    50 H    0.984
                            49 H    0.983
    22   6 C    3.943 --    24 C    0.996    23 C    0.990    25 O    0.954
                            19 C    0.936
    23   6 C    3.995 --    22 C    0.990    52 H    0.985    54 H    0.984
                            53 H    0.983
    24   6 C    3.994 --    22 C    0.996    55 H    0.985    57 H    0.983
                            56 H    0.982
    25   8 O    2.232 --    17 B    1.127    22 C    0.954
    26   6 C    3.989 --    16 C    1.826    27 C    1.053    58 H    0.965
    27   6 C    3.967 --    26 C    1.053    28 H    0.968    29 C    0.940
                            10 C    0.886
    28   1 H    0.998 --    27 C    0.968
    29   6 C    3.943 --    30 C    1.171    59 H    0.974    27 C    0.940
                            10 C    0.682
    30   6 C    3.987 --    31 C    1.738    29 C    1.171    60 H    0.965
    31   6 C    3.977 --    30 C    1.738    14 C    0.976    32 H    0.970
                            12 C    0.127
    32   1 H    0.999 --    31 C    0.970
    33   1 H    0.997 --     1 C    0.982
    34   1 H    0.998 --     1 C    0.984
    35   1 H    0.997 --     1 C    0.982
    36   1 H    0.997 --     4 C    0.983
    37   1 H    0.998 --     4 C    0.984
    38   1 H    0.998 --     4 C    0.984
    39   1 H    0.998 --     6 C    0.984
    40   1 H    0.997 --     6 C    0.982
    41   1 H    0.997 --     6 C    0.982
    42   1 H    0.998 --     7 C    0.984
    43   1 H    0.997 --     7 C    0.983
    44   1 H    0.998 --     7 C    0.984
    45   1 H    0.999 --    11 C    0.963
    46   1 H    0.997 --    20 C    0.983
    47   1 H    0.998 --    20 C    0.984
    48   1 H    0.997 --    20 C    0.982
    49   1 H    0.997 --    21 C    0.983
    50   1 H    0.998 --    21 C    0.984
    51   1 H    0.998 --    21 C    0.984
    52   1 H    0.998 --    23 C    0.985
    53   1 H    0.997 --    23 C    0.983
    54   1 H    0.998 --    23 C    0.984
    55   1 H    0.998 --    24 C    0.985
    56   1 H    0.997 --    24 C    0.982
    57   1 H    0.997 --    24 C    0.983
    58   1 H    0.998 --    26 C    0.965
    59   1 H    0.998 --    29 C    0.974
    60   1 H    0.999 --    30 C    0.965
 ---------------------------------------------------------------------------

molecular dipole:
                 x           y           z       tot (Debye)
 q only:       -0.295      -0.514      -0.099
   full:       -0.250      -0.601      -0.180       1.716

           -------------------------------------------------
          | TOTAL ENERGY              -82.310171746031 Eh   |
          | GRADIENT NORM               0.000838891033 Eh/α |
          | HOMO-LUMO GAP               3.319308012318 eV   |
           -------------------------------------------------

 * finished run on 2022/07/09 at 18:33:36.771
