   * xtb version 6.5.0 (homebrew) compiled by 'nhattrup@GPGGRP-SHANNON.CHEME.CMU.EDU' on
          program call               : /opt/homebrew/bin/xtb bvl_bpin2_scan_3-9_xtb.xyz --chrg 0 --uhf 0 --opt --input xcontrol_bvl_bpin2_scan_3-9_xtb

   ID    Z sym.   atoms
    1    6 C      1, 2, 4-7, 10-12, 14, 16, 19-24, 26, 27, 29-31
    2    8 O      3, 8, 18, 25
    3    5 B      9, 17
    4    1 H      13, 15, 28, 32-60
constraining bond 12 31 to    1.8333000 Å, actual value:    1.7241605 Å
constraining bond 10 29 to    1.5000000 Å, actual value:    1.6133499 Å

          :  Hamiltonian                  GFN2-xTB          :
 * total energy  :   -82.1189785 Eh     change       -0.1420730E-08 Eh
 * total energy  :   -82.2475162 Eh     change       -0.1285376E+00 Eh
 * total energy  :   -82.2927917 Eh     change       -0.4527547E-01 Eh
 * total energy  :   -82.2935037 Eh     change       -0.7120228E-03 Eh
 * total energy  :   -82.2937978 Eh     change       -0.2941716E-03 Eh
 * total energy  :   -82.2880746 Eh     change        0.5723271E-02 Eh
 * total energy  :   -82.2940890 Eh     change       -0.6014434E-02 Eh
 * total energy  :   -82.2941615 Eh     change       -0.7253378E-04 Eh
 * total energy  :   -82.2942267 Eh     change       -0.6511568E-04 Eh
 * total energy  :   -82.2942842 Eh     change       -0.5751266E-04 Eh
 * total energy  :   -82.2944649 Eh     change       -0.7581965E-05 Eh
 * total energy  :   -82.2944727 Eh     change       -0.7839455E-05 Eh
 * total energy  :   -82.2944824 Eh     change       -0.9681402E-05 Eh
 * total energy  :   -82.2944945 Eh     change       -0.1217089E-04 Eh
 * total energy  :   -82.2945166 Eh     change       -0.2204464E-04 Eh
 * total energy  :   -82.2945400 Eh     change       -0.2345841E-04 Eh
 * total energy  :   -82.2945538 Eh     change       -0.1371221E-04 Eh
 * total energy  :   -82.2945606 Eh     change       -0.6838512E-05 Eh
 * total energy  :   -82.2945642 Eh     change       -0.3644482E-05 Eh
   *** GEOMETRY OPTIMIZATION CONVERGED AFTER 36 ITERATIONS ***

 final structure:
================
60
 xtb: 6.5.0 (homebrew)
C            3.53917688632928      -37.74686764098823       15.85802721362395
C            3.73862206422251      -38.10385055934174       17.32885953756288
O            3.27605408710117      -37.02796671730492       18.14775465246383
C            2.87613029530927      -39.32450970925979       17.67202547872069
C            5.23708470860820      -38.26845792903841       17.77455796774967
C            5.71191572773343      -39.71186413931282       17.92050674116647
C            6.21607645360537      -37.50502483056515       16.87429822373941
O            5.26533737944736      -37.62800662910988       19.05224496470891
B            4.14951091540200      -36.85775802489111       19.18447228085135
C            3.88718809547775      -35.87228319867150       20.38541939339934
C            4.93436713723358      -35.83381152167389       21.38861685223001
C            4.95762855795341      -34.98121661693922       22.45247029146387
H            5.89401238833741      -34.90823082187620       22.99617674033765
C            3.79865931498913      -34.30206095987066       23.09088876832757
H            4.03868213756934      -33.91416888972804       24.07750647308421
C            2.45139255921780      -34.95325088609290       23.12849814229289
B            1.71233388429573      -34.95876882270956       24.49877570920986
O            2.22944359875658      -34.42269392077477       25.64814738733007
C            1.36267050610696      -34.74317852012206       26.73469149818946
C            1.23832408063522      -33.53627258264915       27.66189506738499
C            2.01606182755640      -35.90020423798698       27.50140226461968
C            0.03174554346101      -35.16513709823510       26.01334931470067
C           -0.96275849043466      -34.00508390061074       25.87482038956582
C           -0.68339131392303      -36.36501595692595       26.63015743539615
O            0.46883600672996      -35.49528754415957       24.69604014432203
C            1.88669158542933      -35.52491862808740       22.06115354773879
C            2.41749214669889      -35.61448402820483       20.70204081489660
H            1.75118144948244      -36.11663787718597       20.01166447165177
C            3.24903326495631      -34.54958954925153       20.05393732027277
C            3.77036434122548      -33.37498409582820       20.70935669041043
C            4.19751898501779      -33.36983291411153       22.00595676528971
H            4.76648283785796      -32.50373572104900       22.32809103391992
H            2.47372274926485      -37.67676129614397       15.65357994438195
H            3.96877727626278      -38.51755667788120       15.22401076297439
H            3.99070606349055      -36.78906869272672       15.62073244074391
H            1.83387305747589      -39.07372675073026       17.48838302050781
H            2.98099217732091      -39.57490879534857       18.72469498367631
H            3.14651120828263      -40.18015294964430       17.06082042071861
H            5.61375018489737      -40.23722787764813       16.97443556281367
H            5.14904302880923      -40.23443262843416       18.68692255684075
H            6.75832051799063      -39.70925363478563       18.21501651883787
H            6.28262144978871      -37.96131833189755       15.89132298962684
H            7.19831874772936      -37.52287402561311       17.34070410043469
H            5.90948523815252      -36.46641929532665       16.77877173609049
H            5.86370628905057      -36.29556911796268       21.08534866768862
H            2.20355346567666      -33.34628814775395       28.12493498514421
H            0.50782323694015      -33.73526960985444       28.44138660339382
H            0.94867106745844      -32.64706214029923       27.11153494533200
H            3.00437448418437      -35.58442045177451       27.82790061285223
H            2.13732144667616      -36.76134063776934       26.84900838918916
H            1.42789887653304      -36.17638988956254       28.37144671514892
H           -1.37665780384538      -33.72403782459574       26.83862959387135
H           -1.77142500684190      -34.32133691763610       25.21995679752025
H           -0.47710208798097      -33.14714210567859       25.41667904121079
H           -0.94396845979156      -36.15632317173452       27.66429619692437
H           -0.06614159005435      -37.25619697377017       26.58373386559333
H           -1.59475770963748      -36.55725204473904       26.06946556645216
H            0.91411004970005      -35.97993736258754       22.19620404166548
H            3.02703502752186      -34.39796083500998       19.00142175456643
H            4.12921805255344      -32.59170734053865       20.05462360918226

          :  Hamiltonian                  GFN2-xTB          :
         :: total energy             -82.294564244918 Eh    ::
         :: gradient norm              0.000420056020 Eh/a0 ::
         :: HOMO-LUMO gap              2.623248897794 eV    ::
         :: SCC energy               -83.376495148692 Eh    ::
         :: -> dispersion             -0.061120472160 Eh    ::
         :: repulsion energy           1.081003210253 Eh    ::

    * Orbital Energies and Occupations

         #    Occupation            Energy/Eh            Energy/eV
      -------------------------------------------------------------
         1        2.0000           -0.6943645             -18.8946
       ...           ...                  ...                  ...
        63        2.0000           -0.4370097             -11.8916
        64        2.0000           -0.4356861             -11.8556
        65        2.0000           -0.4286926             -11.6653
        66        2.0000           -0.4243597             -11.5474
        67        2.0000           -0.4179446             -11.3729
        68        2.0000           -0.4113435             -11.1932
        69        2.0000           -0.4071938             -11.0803
        70        2.0000           -0.4022822             -10.9467
        71        2.0000           -0.3986546             -10.8479
        72        2.0000           -0.3944316             -10.7330
        73        2.0000           -0.3761266             -10.2349
        74        2.0000           -0.3760166             -10.2319
        75        2.0000           -0.3188638              -8.6767 (HOMO)
        76                         -0.2224612              -6.0535 (LUMO)
        77                         -0.2140482              -5.8245
        78                         -0.1523225              -4.1449
        79                         -0.1121596              -3.0520
        80                         -0.0894353              -2.4337
        81                         -0.0000083              -0.0002
        82                          0.0125072               0.3403
        83                          0.0207161               0.5637
        84                          0.0258153               0.7025
        85                          0.0314763               0.8565
        86                          0.0529454               1.4407
       ...                                ...                  ...
       144                          0.6960395              18.9402
      -------------------------------------------------------------
                  HL-Gap            0.0964026 Eh            2.6232 eV

     #   Z          covCN         q      C6AA      α(0)
     1   6 C        3.755    -0.118    22.808     6.810
     2   6 C        3.859     0.129    18.446     6.108
     3   8 O        1.638    -0.376    20.390     6.095
     4   6 C        3.755    -0.117    22.792     6.807
     5   6 C        3.860     0.129    18.454     6.109
     6   6 C        3.755    -0.118    22.822     6.812
     7   6 C        3.755    -0.117    22.788     6.807
     8   8 O        1.638    -0.369    20.260     6.076
     9   5 B        2.659     0.442    15.453     6.619
    10   6 C        3.838    -0.051    21.454     6.589
    11   6 C        2.894    -0.068    29.701     8.935
    12   6 C        3.680    -0.008    20.938     6.554
    13   1 H        0.925     0.027     2.631     2.536
    14   6 C        3.866    -0.020    20.884     6.498
    15   1 H        0.925     0.044     2.398     2.422
    16   6 C        2.864    -0.088    30.207     9.009
    17   5 B        2.662     0.431    15.563     6.640
    18   8 O        1.638    -0.374    20.360     6.091
    19   6 C        3.859     0.129    18.451     6.109
    20   6 C        3.755    -0.117    22.792     6.807
    21   6 C        3.755    -0.116    22.771     6.804
    22   6 C        3.860     0.129    18.450     6.109
    23   6 C        3.755    -0.116    22.780     6.805
    24   6 C        3.755    -0.117    22.799     6.808
    25   8 O        1.638    -0.373    20.347     6.089
    26   6 C        2.895    -0.025    28.628     8.773
    27   6 C        3.861    -0.025    20.972     6.513
    28   1 H        0.925     0.038     2.476     2.461
    29   6 C        3.869     0.002    20.505     6.439
    30   6 C        2.890    -0.071    29.765     8.945
    31   6 C        3.682    -0.007    20.905     6.548
    32   1 H        0.925     0.027     2.633     2.537
    33   1 H        0.925     0.056     2.252     2.347
    34   1 H        0.925     0.041     2.435     2.440
    35   1 H        0.925     0.052     2.291     2.367
    36   1 H        0.925     0.053     2.280     2.361
    37   1 H        0.925     0.045     2.388     2.417
    38   1 H        0.925     0.044     2.399     2.422
    39   1 H        0.925     0.041     2.431     2.438
    40   1 H        0.925     0.053     2.277     2.360
    41   1 H        0.925     0.056     2.246     2.344
    42   1 H        0.925     0.044     2.395     2.420
    43   1 H        0.925     0.054     2.273     2.358
    44   1 H        0.925     0.044     2.398     2.422
    45   1 H        0.926     0.029     2.604     2.523
    46   1 H        0.925     0.053     2.277     2.360
    47   1 H        0.925     0.039     2.462     2.454
    48   1 H        0.925     0.052     2.298     2.370
    49   1 H        0.925     0.051     2.303     2.373
    50   1 H        0.925     0.044     2.403     2.424
    51   1 H        0.925     0.042     2.426     2.436
    52   1 H        0.925     0.042     2.423     2.434
    53   1 H        0.925     0.052     2.297     2.370
    54   1 H        0.925     0.044     2.400     2.423
    55   1 H        0.925     0.039     2.459     2.452
    56   1 H        0.925     0.052     2.298     2.371
    57   1 H        0.925     0.054     2.272     2.357
    58   1 H        0.925     0.037     2.484     2.465
    59   1 H        0.925     0.032     2.552     2.498
    60   1 H        0.925     0.017     2.777     2.606

Wiberg/Mayer (AO) data.
largest (>0.10) Wiberg bond orders for each atom

     #   Z sym  total        # sym  WBO       # sym  WBO       # sym  WBO
 ---------------------------------------------------------------------------
     1   6 C    3.994 --     2 C    0.997    34 H    0.984    33 H    0.982
                            35 H    0.982
     2   6 C    3.941 --     1 C    0.997     4 C    0.991     3 O    0.949
                             5 C    0.937
     3   8 O    2.230 --     9 B    1.134     2 C    0.949
     4   6 C    3.994 --     2 C    0.991    38 H    0.984    37 H    0.984
                            36 H    0.983
     5   6 C    3.940 --     6 C    0.997     7 C    0.991     8 O    0.948
                             2 C    0.937
     6   6 C    3.994 --     5 C    0.997    39 H    0.984    41 H    0.982
                            40 H    0.982
     7   6 C    3.995 --     5 C    0.991    42 H    0.984    44 H    0.984
                            43 H    0.983
     8   8 O    2.242 --     9 B    1.145     5 C    0.948
     9   5 B    3.374 --     8 O    1.145     3 O    1.134    10 C    0.981
    10   6 C    3.937 --    11 C    1.147     9 B    0.981    27 C    0.851
                            29 C    0.791
    11   6 C    3.978 --    12 C    1.585    10 C    1.147    45 H    0.965
                            30 C    0.171
    12   6 C    3.968 --    11 C    1.585    13 H    0.970    14 C    0.936
                            31 C    0.356
    13   1 H    0.999 --    12 C    0.970
    14   6 C    3.970 --    16 C    0.999    15 H    0.968    31 C    0.943
                            12 C    0.936
    15   1 H    0.998 --    14 C    0.968
    16   6 C    3.977 --    26 C    1.808    17 B    1.007    14 C    0.999
    17   5 B    3.376 --    25 O    1.125    18 O    1.122    16 C    1.007
    18   8 O    2.229 --    17 B    1.122    19 C    0.954
    19   6 C    3.944 --    20 C    0.997    21 C    0.991    18 O    0.954
                            22 C    0.937
    20   6 C    3.994 --    19 C    0.997    47 H    0.985    46 H    0.983
                            48 H    0.982
    21   6 C    3.994 --    19 C    0.991    51 H    0.985    50 H    0.984
                            49 H    0.983
    22   6 C    3.943 --    24 C    0.996    23 C    0.990    25 O    0.954
                            19 C    0.937
    23   6 C    3.995 --    22 C    0.990    52 H    0.985    54 H    0.984
                            53 H    0.983
    24   6 C    3.994 --    22 C    0.996    55 H    0.985    57 H    0.983
                            56 H    0.982
    25   8 O    2.229 --    17 B    1.125    22 C    0.954
    26   6 C    3.989 --    16 C    1.808    27 C    1.068    58 H    0.965
    27   6 C    3.934 --    26 C    1.068    28 H    0.970    29 C    0.901
                            10 C    0.851
    28   1 H    0.998 --    27 C    0.970
    29   6 C    3.954 --    30 C    1.157    59 H    0.968    27 C    0.901
                            10 C    0.791
    30   6 C    3.971 --    31 C    1.573    29 C    1.157    60 H    0.967
                            11 C    0.171
    31   6 C    3.966 --    30 C    1.573    32 H    0.970    14 C    0.943
                            12 C    0.356
    32   1 H    0.999 --    31 C    0.970
    33   1 H    0.997 --     1 C    0.982
    34   1 H    0.998 --     1 C    0.984
    35   1 H    0.997 --     1 C    0.982
    36   1 H    0.997 --     4 C    0.983
    37   1 H    0.998 --     4 C    0.984
    38   1 H    0.998 --     4 C    0.984
    39   1 H    0.998 --     6 C    0.984
    40   1 H    0.997 --     6 C    0.982
    41   1 H    0.997 --     6 C    0.982
    42   1 H    0.998 --     7 C    0.984
    43   1 H    0.997 --     7 C    0.983
    44   1 H    0.998 --     7 C    0.984
    45   1 H    0.999 --    11 C    0.965
    46   1 H    0.997 --    20 C    0.983
    47   1 H    0.998 --    20 C    0.985
    48   1 H    0.997 --    20 C    0.982
    49   1 H    0.997 --    21 C    0.983
    50   1 H    0.998 --    21 C    0.984
    51   1 H    0.998 --    21 C    0.985
    52   1 H    0.998 --    23 C    0.985
    53   1 H    0.997 --    23 C    0.983
    54   1 H    0.998 --    23 C    0.984
    55   1 H    0.998 --    24 C    0.985
    56   1 H    0.997 --    24 C    0.982
    57   1 H    0.997 --    24 C    0.983
    58   1 H    0.998 --    26 C    0.965
    59   1 H    0.998 --    29 C    0.968
    60   1 H    0.999 --    30 C    0.967
 ---------------------------------------------------------------------------

molecular dipole:
                 x           y           z       tot (Debye)
 q only:       -0.160      -0.585      -0.157
   full:       -0.073      -0.638      -0.200       1.709

           -------------------------------------------------
          | TOTAL ENERGY              -82.294564244918 Eh   |
          | GRADIENT NORM               0.000420056020 Eh/α |
          | HOMO-LUMO GAP               2.623248897794 eV   |
           -------------------------------------------------

 * finished run on 2022/07/09 at 18:33:35.566
