   * xtb version 6.5.0 (homebrew) compiled by 'nhattrup@GPGGRP-SHANNON.CHEME.CMU.EDU' on
          program call               : /opt/homebrew/bin/xtb bvl_bpin2_scan_8-3_xtb.xyz --chrg 0 --uhf 0 --opt --input xcontrol_bvl_bpin2_scan_8-3_xtb

   ID    Z sym.   atoms
    1    6 C      1, 2, 4-7, 10-12, 14, 16, 19-24, 26, 27, 29-31
    2    8 O      3, 8, 18, 25
    3    5 B      9, 17
    4    1 H      13, 15, 28, 32-60
constraining bond 12 31 to    2.3889000 Å, actual value:    2.2751336 Å
constraining bond 10 29 to    2.1667000 Å, actual value:    2.2745748 Å

          :  Hamiltonian                  GFN2-xTB          :
 * total energy  :   -82.1057445 Eh     change       -0.9554384E-09 Eh
 * total energy  :   -82.2365889 Eh     change       -0.1308445E+00 Eh
 * total energy  :   -82.2800860 Eh     change       -0.4349709E-01 Eh
 * total energy  :   -82.2807573 Eh     change       -0.6712565E-03 Eh
 * total energy  :   -82.2815001 Eh     change       -0.7427748E-03 Eh
 * total energy  :   -82.2786191 Eh     change        0.2880981E-02 Eh
 * total energy  :   -82.2819012 Eh     change       -0.3282085E-02 Eh
 * total energy  :   -82.2821031 Eh     change       -0.2018795E-03 Eh
 * total energy  :   -82.2823842 Eh     change       -0.2811882E-03 Eh
 * total energy  :   -82.2825655 Eh     change       -0.1812389E-03 Eh
 * total energy  :   -82.2828107 Eh     change       -0.1475117E-04 Eh
 * total energy  :   -82.2828167 Eh     change       -0.6001314E-05 Eh
 * total energy  :   -82.2828242 Eh     change       -0.7514985E-05 Eh
 * total energy  :   -82.2828403 Eh     change       -0.1614966E-04 Eh
 * total energy  :   -82.2828583 Eh     change       -0.1794313E-04 Eh
 * total energy  :   -82.2828667 Eh     change       -0.8457530E-05 Eh
 * total energy  :   -82.2828727 Eh     change       -0.5917457E-05 Eh
 * total energy  :   -82.2828730 Eh     change       -0.3492864E-06 Eh
 * total energy  :   -82.2828764 Eh     change       -0.3407278E-05 Eh
   *** GEOMETRY OPTIMIZATION CONVERGED AFTER 27 ITERATIONS ***

 final structure:
================
60
 xtb: 6.5.0 (homebrew)
C            3.58078224095485      -37.66428744109315       15.88601882552060
C            3.75928980850898      -38.12523394278777       17.33072003962456
O            3.29581403274572      -37.10906378724037       18.21774867681605
C            2.88248699480138      -39.36015796636922       17.57599350263435
C            5.25037005010846      -38.33826661349671       17.77995706838104
C            5.71329872554037      -39.79327311375208       17.80531711027469
C            6.24500593645937      -37.50951214520202       16.95682279654384
O            5.26757112751161      -37.81246913814241       19.10594119648920
B            4.15249522400818      -37.03720641905332       19.28778351105889
C            3.86803627188876      -36.22558491662191       20.57073254579511
C            4.88459225136096      -36.04894534420493       21.52975757398567
C            4.89718729979341      -35.26023854566541       22.63306773712195
H            5.80623064834255      -35.20722726179196       23.21484154181452
C            3.81980929946726      -34.26063895783565       23.01299478881027
H            4.05369941278272      -33.85064803473695       23.99761656993120
C            2.44649294842070      -34.88148745194672       23.09290197095904
B            1.71470088204830      -34.88290539194653       24.47069637863100
O            2.24610788874002      -34.35941495558458       25.61734180279786
C            1.40056944504590      -34.70293442407263       26.71398309476412
C            1.28235273740254      -33.51138984761565       27.66150223804259
C            2.07861852830407      -35.86542324171186       27.45044321533045
C            0.06058621517939      -35.12612160299282       26.00961873958426
C           -0.95143205904698      -33.97725614413154       25.91350902059688
C           -0.62736521515690      -36.34824949535595       26.61381163130807
O            0.47673622412857      -35.42471678112549       24.67747291039191
C            1.88966707643795      -35.46236582349927       22.02988261038230
C            2.49398417660396      -35.56710710442687       20.67626763414962
H            1.80812484491081      -36.07508738340084       19.99803222830647
C            3.01080072740239      -34.31664068161680       20.02441190917079
C            3.66542467303481      -33.26405959715491       20.66253939040974
C            3.97163560731689      -33.15836735257417       21.98426044088166
H            4.53097090005206      -32.29333686020904       22.31088794459661
H            2.51845093680057      -37.56542846283614       15.67657497655147
H            4.00707204546230      -38.39486797110848       15.20384346503861
H            4.04746345346460      -36.69862876449152       15.72033306673216
H            1.84419474983070      -39.08603272686241       17.40282534462737
H            2.97570942124961      -39.68601402087073       18.60904880317521
H            3.14998956917803      -40.17255586054144       16.90717743952180
H            5.62169396584072      -40.23502494122325       16.81673583462882
H            5.13788819492898      -40.37484116139907       18.51818586675494
H            6.75643474041377      -39.82491256601189       18.11002804729168
H            6.32047048016211      -37.88296647303860       15.93996994561348
H            7.22173013708888      -37.57284393319209       17.43109287139734
H            5.94550059302304      -36.46444921283459       16.94477052855601
H            5.77604724063051      -36.63217355043151       21.32537712226771
H            2.25514347579527      -33.31688347847980       28.10636242893146
H            0.57137361041433      -33.73093215602165       28.45345385821453
H            0.97025902838669      -32.61749153499620       27.13131740839211
H            3.06891930713708      -35.54449194396712       27.76549823762969
H            2.19826229375894      -36.71387872386407       26.78132003135263
H            1.50830380680367      -36.16274670619285       28.32534131907914
H           -1.34906018622000      -33.72044265650790       26.89080844515110
H           -1.76916209109778      -34.29211491162749       25.26934858436481
H           -0.48703031498616      -33.10406990291138       25.46232591897781
H           -0.87290925922081      -36.16492610467695       27.65640912942853
H            0.00111561913446      -37.22952498161400       26.53795888064600
H           -1.54545072827416      -36.54170647563581       26.06467054771312
H            0.91360068360433      -35.91356763173726       22.14767373283538
H            2.94831556632748      -34.30605623727759       18.94742133435932
H            3.95475873526327      -32.43782914228833       20.02110018566319

          :  Hamiltonian                  GFN2-xTB          :
         :: total energy             -82.282876417889 Eh    ::
         :: gradient norm              0.000349361500 Eh/a0 ::
         :: HOMO-LUMO gap              1.657083091074 eV    ::
         :: SCC energy               -83.356983611730 Eh    ::
         :: -> dispersion             -0.062710089050 Eh    ::
         :: repulsion energy           1.073235739334 Eh    ::

    * Orbital Energies and Occupations

         #    Occupation            Energy/Eh            Energy/eV
      -------------------------------------------------------------
         1        2.0000           -0.6876306             -18.7114
       ...           ...                  ...                  ...
        63        2.0000           -0.4348824             -11.8338
        64        2.0000           -0.4316849             -11.7467
        65        2.0000           -0.4224186             -11.4946
        66        2.0000           -0.4204500             -11.4410
        67        2.0000           -0.4175572             -11.3623
        68        2.0000           -0.4156194             -11.3096
        69        2.0000           -0.4006626             -10.9026
        70        2.0000           -0.3969413             -10.8013
        71        2.0000           -0.3962823             -10.7834
        72        2.0000           -0.3960491             -10.7770
        73        2.0000           -0.3913046             -10.6479
        74        2.0000           -0.3644173              -9.9163
        75        2.0000           -0.3292923              -8.9605 (HOMO)
        76                         -0.2683956              -7.3034 (LUMO)
        77                         -0.2187921              -5.9536
        78                         -0.1836089              -4.9963
        79                         -0.1462202              -3.9789
        80                         -0.0952451              -2.5917
        81                         -0.0856996              -2.3320
        82                          0.0101706               0.2768
        83                          0.0120857               0.3289
        84                          0.0288982               0.7864
        85                          0.0298709               0.8128
        86                          0.0575041               1.5648
       ...                                ...                  ...
       144                          0.6774209              18.4336
      -------------------------------------------------------------
                  HL-Gap            0.0608967 Eh            1.6571 eV

     #   Z          covCN         q      C6AA      α(0)
     1   6 C        3.755    -0.117    22.786     6.806
     2   6 C        3.859     0.130    18.439     6.107
     3   8 O        1.638    -0.379    20.463     6.106
     4   6 C        3.755    -0.116    22.772     6.804
     5   6 C        3.858     0.130    18.442     6.107
     6   6 C        3.755    -0.117    22.800     6.808
     7   6 C        3.755    -0.115    22.759     6.802
     8   8 O        1.638    -0.375    20.379     6.094
     9   5 B        2.658     0.431    15.580     6.647
    10   6 C        3.053    -0.076    29.847     8.960
    11   6 C        2.891    -0.037    28.924     8.818
    12   6 C        2.908    -0.036    28.900     8.815
    13   1 H        0.926     0.027     2.629     2.536
    14   6 C        3.862    -0.016    20.814     6.488
    15   1 H        0.924     0.046     2.372     2.408
    16   6 C        2.866    -0.081    30.020     8.981
    17   5 B        2.661     0.431    15.564     6.641
    18   8 O        1.638    -0.370    20.287     6.080
    19   6 C        3.860     0.129    18.457     6.110
    20   6 C        3.755    -0.117    22.797     6.808
    21   6 C        3.755    -0.116    22.778     6.805
    22   6 C        3.860     0.129    18.456     6.110
    23   6 C        3.755    -0.116    22.783     6.806
    24   6 C        3.755    -0.117    22.805     6.809
    25   8 O        1.638    -0.371    20.300     6.082
    26   6 C        2.897    -0.028    28.690     8.782
    27   6 C        3.860    -0.007    20.659     6.464
    28   1 H        0.925     0.048     2.346     2.395
    29   6 C        3.081    -0.021    28.431     8.741
    30   6 C        2.888    -0.036    28.887     8.812
    31   6 C        2.909    -0.031    28.769     8.795
    32   1 H        0.926     0.029     2.606     2.524
    33   1 H        0.925     0.054     2.274     2.358
    34   1 H        0.925     0.039     2.460     2.453
    35   1 H        0.925     0.051     2.311     2.377
    36   1 H        0.925     0.051     2.303     2.373
    37   1 H        0.925     0.043     2.405     2.425
    38   1 H        0.925     0.042     2.424     2.435
    39   1 H        0.925     0.039     2.458     2.452
    40   1 H        0.925     0.052     2.295     2.369
    41   1 H        0.925     0.054     2.271     2.357
    42   1 H        0.925     0.042     2.421     2.433
    43   1 H        0.925     0.052     2.300     2.372
    44   1 H        0.925     0.042     2.419     2.432
    45   1 H        0.925     0.035     2.510     2.478
    46   1 H        0.925     0.054     2.269     2.356
    47   1 H        0.925     0.040     2.455     2.450
    48   1 H        0.925     0.052     2.297     2.370
    49   1 H        0.925     0.052     2.295     2.369
    50   1 H        0.925     0.044     2.399     2.422
    51   1 H        0.925     0.042     2.419     2.432
    52   1 H        0.925     0.043     2.416     2.430
    53   1 H        0.925     0.052     2.291     2.367
    54   1 H        0.925     0.044     2.400     2.423
    55   1 H        0.925     0.040     2.452     2.449
    56   1 H        0.925     0.052     2.293     2.368
    57   1 H        0.925     0.054     2.266     2.354
    58   1 H        0.925     0.037     2.485     2.465
    59   1 H        0.926     0.037     2.485     2.465
    60   1 H        0.925     0.026     2.641     2.542

Wiberg/Mayer (AO) data.
largest (>0.10) Wiberg bond orders for each atom

     #   Z sym  total        # sym  WBO       # sym  WBO       # sym  WBO
 ---------------------------------------------------------------------------
     1   6 C    3.994 --     2 C    0.997    34 H    0.985    33 H    0.983
                            35 H    0.982
     2   6 C    3.944 --     1 C    0.997     4 C    0.990     3 O    0.954
                             5 C    0.937
     3   8 O    2.215 --     9 B    1.110     2 C    0.954
     4   6 C    3.994 --     2 C    0.990    38 H    0.984    37 H    0.984
                            36 H    0.983
     5   6 C    3.943 --     6 C    0.996     7 C    0.990     8 O    0.954
                             2 C    0.937
     6   6 C    3.994 --     5 C    0.996    39 H    0.985    41 H    0.983
                            40 H    0.982
     7   6 C    3.994 --     5 C    0.990    42 H    0.984    44 H    0.984
                            43 H    0.983
     8   8 O    2.222 --     9 B    1.117     5 C    0.954
     9   5 B    3.390 --     8 O    1.117     3 O    1.110    10 C    1.031
    10   6 C    3.923 --    11 C    1.309     9 B    1.031    27 C    0.929
                            29 C    0.380    31 C    0.150
    11   6 C    3.991 --    12 C    1.633    10 C    1.309    45 H    0.959
    12   6 C    3.973 --    11 C    1.633    14 C    0.972    13 H    0.971
                            31 C    0.165    29 C    0.137
    13   1 H    0.999 --    12 C    0.971
    14   6 C    3.994 --    16 C    0.988    31 C    0.981    12 C    0.972
                            15 H    0.971
    15   1 H    0.998 --    14 C    0.971
    16   6 C    3.976 --    26 C    1.850    17 B    0.999    14 C    0.988
    17   5 B    3.375 --    25 O    1.131    18 O    1.129    16 C    0.999
    18   8 O    2.235 --    17 B    1.129    19 C    0.953
    19   6 C    3.943 --    20 C    0.997    21 C    0.991    18 O    0.953
                            22 C    0.936
    20   6 C    3.994 --    19 C    0.997    47 H    0.985    46 H    0.983
                            48 H    0.982
    21   6 C    3.994 --    19 C    0.991    51 H    0.984    50 H    0.984
                            49 H    0.983
    22   6 C    3.943 --    24 C    0.996    23 C    0.990    25 O    0.953
                            19 C    0.936
    23   6 C    3.995 --    22 C    0.990    52 H    0.984    54 H    0.984
                            53 H    0.983
    24   6 C    3.994 --    22 C    0.996    55 H    0.985    57 H    0.983
                            56 H    0.982
    25   8 O    2.235 --    17 B    1.131    22 C    0.953
    26   6 C    3.987 --    16 C    1.850    27 C    1.024    58 H    0.966
    27   6 C    3.990 --    26 C    1.024    29 C    0.976    28 H    0.968
                            10 C    0.929
    28   1 H    0.998 --    27 C    0.968
    29   6 C    3.941 --    30 C    1.360    27 C    0.976    59 H    0.973
                            10 C    0.380    12 C    0.137
    30   6 C    3.992 --    31 C    1.596    29 C    1.360    60 H    0.962
    31   6 C    3.959 --    30 C    1.596    14 C    0.981    32 H    0.972
                            12 C    0.165    10 C    0.150
    32   1 H    0.999 --    31 C    0.972
    33   1 H    0.997 --     1 C    0.983
    34   1 H    0.998 --     1 C    0.985
    35   1 H    0.997 --     1 C    0.982
    36   1 H    0.997 --     4 C    0.983
    37   1 H    0.998 --     4 C    0.984
    38   1 H    0.998 --     4 C    0.984
    39   1 H    0.998 --     6 C    0.985
    40   1 H    0.997 --     6 C    0.982
    41   1 H    0.997 --     6 C    0.983
    42   1 H    0.998 --     7 C    0.984
    43   1 H    0.997 --     7 C    0.983
    44   1 H    0.998 --     7 C    0.984
    45   1 H    0.999 --    11 C    0.959
    46   1 H    0.997 --    20 C    0.983
    47   1 H    0.998 --    20 C    0.985
    48   1 H    0.997 --    20 C    0.982
    49   1 H    0.997 --    21 C    0.983
    50   1 H    0.998 --    21 C    0.984
    51   1 H    0.998 --    21 C    0.984
    52   1 H    0.998 --    23 C    0.984
    53   1 H    0.997 --    23 C    0.983
    54   1 H    0.998 --    23 C    0.984
    55   1 H    0.998 --    24 C    0.985
    56   1 H    0.997 --    24 C    0.982
    57   1 H    0.997 --    24 C    0.983
    58   1 H    0.998 --    26 C    0.966
    59   1 H    0.998 --    29 C    0.973
    60   1 H    0.999 --    30 C    0.962
 ---------------------------------------------------------------------------

molecular dipole:
                 x           y           z       tot (Debye)
 q only:       -0.299      -0.316       0.053
   full:       -0.141      -0.372      -0.089       1.036

           -------------------------------------------------
          | TOTAL ENERGY              -82.282876417889 Eh   |
          | GRADIENT NORM               0.000349361500 Eh/α |
          | HOMO-LUMO GAP               1.657083091074 eV   |
           -------------------------------------------------

 * finished run on 2022/07/09 at 18:33:30.240
