   * xtb version 6.5.0 (homebrew) compiled by 'nhattrup@GPGGRP-SHANNON.CHEME.CMU.EDU' on
          program call               : /opt/homebrew/bin/xtb bvl_bpin2_scan_4-4_xtb.xyz --chrg 0 --uhf 0 --opt --input xcontrol_bvl_bpin2_scan_4-4_xtb

   ID    Z sym.   atoms
    1    6 C      1, 2, 4-7, 10-12, 14, 16, 19-24, 26, 27, 29-31
    2    8 O      3, 8, 18, 25
    3    5 B      9, 17
    4    1 H      13, 15, 28, 32-60
constraining bond 12 31 to    1.9444000 Å, actual value:    1.8292268 Å
constraining bond 10 29 to    2.0556000 Å, actual value:    2.1673102 Å

          :  Hamiltonian                  GFN2-xTB          :
 * total energy  :   -82.1188985 Eh     change       -0.1963471E-08 Eh
 * total energy  :   -82.2531949 Eh     change       -0.1342964E+00 Eh
 * total energy  :   -82.2950661 Eh     change       -0.4187114E-01 Eh
 * total energy  :   -82.2958612 Eh     change       -0.7951312E-03 Eh
 * total energy  :   -82.2944256 Eh     change        0.1435630E-02 Eh
 * total energy  :   -82.2956429 Eh     change       -0.1217265E-02 Eh
 * total energy  :   -82.2964960 Eh     change       -0.8531809E-03 Eh
 * total energy  :   -82.2968366 Eh     change       -0.3405727E-03 Eh
 * total energy  :   -82.2969345 Eh     change       -0.9787809E-04 Eh
 * total energy  :   -82.2971570 Eh     change       -0.2225518E-03 Eh
 * total energy  :   -82.2975278 Eh     change       -0.8721912E-05 Eh
 * total energy  :   -82.2975334 Eh     change       -0.5606970E-05 Eh
 * total energy  :   -82.2975426 Eh     change       -0.9168732E-05 Eh
 * total energy  :   -82.2975529 Eh     change       -0.1030230E-04 Eh
 * total energy  :   -82.2975663 Eh     change       -0.1339032E-04 Eh
 * total energy  :   -82.2975798 Eh     change       -0.1357323E-04 Eh
 * total energy  :   -82.2975888 Eh     change       -0.8931579E-05 Eh
 * total energy  :   -82.2975944 Eh     change       -0.5605853E-05 Eh
 * total energy  :   -82.2975992 Eh     change       -0.4804708E-05 Eh
   *** GEOMETRY OPTIMIZATION CONVERGED AFTER 38 ITERATIONS ***

 final structure:
================
60
 xtb: 6.5.0 (homebrew)
C            3.47383508611005      -37.74019772011739       15.93200859630537
C            3.72015703775843      -38.17098160778138       17.37631236683023
O            3.24165380659763      -37.16127453499944       18.26312343763622
C            2.90780222537782      -39.43947383397959       17.66669563534978
C            5.23405668719828      -38.30907259676450       17.77706364001840
C            5.76081974510002      -39.74161567752305       17.82186056648973
C            6.16336669685570      -37.45962243363669       16.90050434239328
O            5.27519231307190      -37.74692714547704       19.08794357845898
B            4.13636124009430      -37.01626753030063       19.29048262567064
C            3.88390763363954      -36.13297395371671       20.54254232497934
C            4.91876544128240      -35.92275048357940       21.43693017803132
C            4.96128116550848      -35.04767739877139       22.51290888162291
H            5.90972603019773      -34.92766580626590       23.01761216042920
C            3.81937107223476      -34.26592508647378       23.09026617832880
H            4.05580215469514      -33.87767316890221       24.07923462124663
C            2.45234108407500      -34.87084398091723       23.11305773571916
B            1.69849419408587      -34.88621702533673       24.47906249279372
O            2.21211650871730      -34.36931150526956       25.63713648074702
C            1.35127608073679      -34.72298987155969       26.71897118164048
C            1.21398543182756      -33.53745928110054       27.67143272587132
C            2.02416453824666      -35.88626446837669       27.45887251910124
C            0.02379012029399      -35.14776995416749       25.99196892755688
C           -0.99344400521720      -34.00410152532855       25.89116977060090
C           -0.66463046873631      -36.37945074528578       26.57589710694545
O            0.46008031708522      -35.43311012983840       24.66319118692275
C            1.90197120476204      -35.41860294371371       22.02974503655089
C            2.51268879816855      -35.51211668014029       20.67917078897103
H            1.82220336212591      -35.99669435005092       19.98993543730332
C            3.10483073351612      -34.29621815418693       20.04895924406981
C            3.83075167407921      -33.31983088933298       20.67883161112329
C            4.23432280623715      -33.31752174937988       22.01134393280242
H            4.90719468227057      -32.53019414444908       22.32173351144651
H            2.40200130170024      -37.69587994789250       15.75523594785642
H            3.91378338804755      -38.45878233914986       15.24584731546390
H            3.88717793246855      -36.75541439333116       15.73964232675526
H            1.85339212246468      -39.21421028805819       17.52319230507563
H            3.04765111939327      -39.74663128591128       18.70012279481373
H            3.19037848220385      -40.24844913280924       16.99980403193744
H            5.66132127873658      -40.20996930518834       16.84640111661277
H            5.23190120122988      -40.33080829738993       18.56377803634102
H            6.81234135253866      -39.72054591244920       18.09703780366208
H            6.21734224415488      -37.85085425739495       15.88905648394708
H            7.15830975426258      -37.47350899165575       17.33959971156384
H            5.82106402555608      -36.42795677596767       16.87962064418449
H            5.85415487265044      -36.40274412410616       21.17482682684988
H            2.18031741990250      -33.33913024929622       28.12852349050146
H            0.49547095858432      -33.76614436106693       28.45392960853370
H            0.90215222579295      -32.64259320748249       27.14277951156361
H            3.00832751038708      -35.56203770028902       27.78951859952701
H            2.15749164615372      -36.73078242120705       26.78742215555695
H            1.44315543904648      -36.19079800939964       28.32415010807154
H           -1.40454506136916      -33.75639282160122       26.86521855733302
H           -1.80139217124780      -34.31884021576096       25.23474780981371
H           -0.52836025466817      -33.12520959868083       25.45188254225883
H           -0.92253897689827      -36.20846796682613       27.61757498861320
H           -0.03056536019626      -37.25656936765213       26.49765195495083
H           -1.57555544656549      -36.57198164757595       26.01465513872334
H            0.91578113287570      -35.85161517904582       22.12784968310677
H            2.96826899415571      -34.22185802586070       18.97982504941240
H            4.25067747064502      -32.54000780023392       20.05387663300801

          :  Hamiltonian                  GFN2-xTB          :
         :: total energy             -82.297599176232 Eh    ::
         :: gradient norm              0.000373891208 Eh/a0 ::
         :: HOMO-LUMO gap              3.153242972271 eV    ::
         :: SCC energy               -83.376676668866 Eh    ::
         :: -> dispersion             -0.061966384193 Eh    ::
         :: repulsion energy           1.078379559956 Eh    ::

    * Orbital Energies and Occupations

         #    Occupation            Energy/Eh            Energy/eV
      -------------------------------------------------------------
         1        2.0000           -0.6875619             -18.7095
       ...           ...                  ...                  ...
        63        2.0000           -0.4342544             -11.8167
        64        2.0000           -0.4319874             -11.7550
        65        2.0000           -0.4284357             -11.6583
        66        2.0000           -0.4209732             -11.4553
        67        2.0000           -0.4194292             -11.4132
        68        2.0000           -0.4151778             -11.2976
        69        2.0000           -0.4054705             -11.0334
        70        2.0000           -0.3971733             -10.8076
        71        2.0000           -0.3968759             -10.7995
        72        2.0000           -0.3934409             -10.7061
        73        2.0000           -0.3860731             -10.5056
        74        2.0000           -0.3495197              -9.5109
        75        2.0000           -0.3467746              -9.4362 (HOMO)
        76                         -0.2308950              -6.2830 (LUMO)
        77                         -0.2140982              -5.8259
        78                         -0.1897276              -5.1628
        79                         -0.1228702              -3.3435
        80                         -0.0976236              -2.6565
        81                         -0.0672429              -1.8298
        82                          0.0090238               0.2455
        83                          0.0107538               0.2926
        84                          0.0287970               0.7836
        85                          0.0293390               0.7984
        86                          0.0570957               1.5537
       ...                                ...                  ...
       144                          0.6902983              18.7840
      -------------------------------------------------------------
                  HL-Gap            0.1158795 Eh            3.1532 eV

     #   Z          covCN         q      C6AA      α(0)
     1   6 C        3.755    -0.117    22.789     6.807
     2   6 C        3.859     0.130    18.445     6.108
     3   8 O        1.638    -0.376    20.404     6.097
     4   6 C        3.755    -0.116    22.774     6.805
     5   6 C        3.859     0.129    18.446     6.108
     6   6 C        3.755    -0.117    22.802     6.809
     7   6 C        3.755    -0.115    22.765     6.803
     8   8 O        1.638    -0.374    20.366     6.092
     9   5 B        2.659     0.433    15.549     6.639
    10   6 C        3.241    -0.076    28.896     8.715
    11   6 C        2.892    -0.047    29.157     8.853
    12   6 C        3.496    -0.020    22.651     7.073
    13   1 H        0.926     0.029     2.600     2.521
    14   6 C        3.865    -0.012    20.740     6.476
    15   1 H        0.925     0.046     2.366     2.406
    16   6 C        2.863    -0.083    30.082     8.990
    17   5 B        2.662     0.431    15.559     6.639
    18   8 O        1.638    -0.372    20.325     6.085
    19   6 C        3.860     0.129    18.456     6.110
    20   6 C        3.755    -0.117    22.799     6.808
    21   6 C        3.755    -0.116    22.779     6.805
    22   6 C        3.860     0.129    18.456     6.110
    23   6 C        3.755    -0.116    22.786     6.806
    24   6 C        3.755    -0.118    22.807     6.809
    25   8 O        1.638    -0.370    20.285     6.079
    26   6 C        2.897    -0.026    28.643     8.775
    27   6 C        3.863    -0.012    20.741     6.477
    28   1 H        0.925     0.045     2.383     2.414
    29   6 C        3.268    -0.021    27.228     8.417
    30   6 C        2.888    -0.051    29.257     8.868
    31   6 C        3.498    -0.017    22.547     7.051
    32   1 H        0.926     0.030     2.592     2.518
    33   1 H        0.925     0.054     2.272     2.357
    34   1 H        0.925     0.039     2.459     2.452
    35   1 H        0.925     0.051     2.307     2.375
    36   1 H        0.925     0.052     2.298     2.370
    37   1 H        0.925     0.044     2.402     2.424
    38   1 H        0.925     0.042     2.422     2.434
    39   1 H        0.925     0.040     2.454     2.450
    40   1 H        0.925     0.052     2.295     2.369
    41   1 H        0.925     0.054     2.268     2.355
    42   1 H        0.925     0.042     2.419     2.432
    43   1 H        0.925     0.052     2.298     2.371
    44   1 H        0.925     0.043     2.412     2.429
    45   1 H        0.925     0.033     2.549     2.497
    46   1 H        0.925     0.054     2.269     2.356
    47   1 H        0.925     0.040     2.452     2.449
    48   1 H        0.925     0.052     2.295     2.369
    49   1 H        0.925     0.052     2.296     2.369
    50   1 H        0.925     0.044     2.398     2.421
    51   1 H        0.925     0.042     2.417     2.431
    52   1 H        0.925     0.043     2.413     2.429
    53   1 H        0.925     0.053     2.288     2.365
    54   1 H        0.925     0.044     2.398     2.421
    55   1 H        0.925     0.040     2.450     2.448
    56   1 H        0.925     0.052     2.292     2.367
    57   1 H        0.925     0.055     2.263     2.353
    58   1 H        0.925     0.038     2.476     2.461
    59   1 H        0.926     0.031     2.571     2.507
    60   1 H        0.925     0.022     2.709     2.574

Wiberg/Mayer (AO) data.
largest (>0.10) Wiberg bond orders for each atom

     #   Z sym  total        # sym  WBO       # sym  WBO       # sym  WBO
 ---------------------------------------------------------------------------
     1   6 C    3.994 --     2 C    0.997    34 H    0.985    33 H    0.983
                            35 H    0.982
     2   6 C    3.943 --     1 C    0.997     4 C    0.991     3 O    0.954
                             5 C    0.936
     3   8 O    2.222 --     9 B    1.119     2 C    0.954
     4   6 C    3.994 --     2 C    0.991    38 H    0.985    37 H    0.984
                            36 H    0.983
     5   6 C    3.942 --     6 C    0.997     7 C    0.990     8 O    0.953
                             2 C    0.936
     6   6 C    3.994 --     5 C    0.997    39 H    0.985    41 H    0.983
                            40 H    0.982
     7   6 C    3.995 --     5 C    0.990    42 H    0.984    44 H    0.984
                            43 H    0.983
     8   8 O    2.226 --     9 B    1.123     5 C    0.953
     9   5 B    3.382 --     8 O    1.123     3 O    1.119    10 C    1.015
    10   6 C    3.947 --    11 C    1.465     9 B    1.015    27 C    0.933
                            29 C    0.292    31 C    0.115
    11   6 C    3.989 --    10 C    1.465    12 C    1.407    45 H    0.962
    12   6 C    3.953 --    11 C    1.407    13 H    0.973    14 C    0.947
                            31 C    0.436    29 C    0.112
    13   1 H    0.999 --    12 C    0.973
    14   6 C    3.981 --    16 C    1.005    15 H    0.968    31 C    0.959
                            12 C    0.947
    15   1 H    0.998 --    14 C    0.968
    16   6 C    3.977 --    26 C    1.844    14 C    1.005    17 B    0.999
    17   5 B    3.376 --    25 O    1.133    18 O    1.128    16 C    0.999
    18   8 O    2.233 --    17 B    1.128    19 C    0.953
    19   6 C    3.943 --    20 C    0.997    21 C    0.991    18 O    0.953
                            22 C    0.937
    20   6 C    3.994 --    19 C    0.997    47 H    0.984    46 H    0.983
                            48 H    0.982
    21   6 C    3.994 --    19 C    0.991    51 H    0.984    50 H    0.984
                            49 H    0.983
    22   6 C    3.942 --    24 C    0.996    23 C    0.991    25 O    0.953
                            19 C    0.937
    23   6 C    3.995 --    22 C    0.991    52 H    0.984    54 H    0.984
                            53 H    0.983
    24   6 C    3.994 --    22 C    0.996    55 H    0.984    57 H    0.983
                            56 H    0.982
    25   8 O    2.236 --    17 B    1.133    22 C    0.953
    26   6 C    3.987 --    16 C    1.844    27 C    1.019    58 H    0.967
    27   6 C    3.987 --    26 C    1.019    28 H    0.969    29 C    0.967
                            10 C    0.933
    28   1 H    0.998 --    27 C    0.969
    29   6 C    3.962 --    30 C    1.520    59 H    0.972    27 C    0.967
                            10 C    0.292    12 C    0.112
    30   6 C    3.987 --    29 C    1.520    31 C    1.378    60 H    0.964
    31   6 C    3.942 --    30 C    1.378    32 H    0.974    14 C    0.959
                            12 C    0.436    10 C    0.115
    32   1 H    0.999 --    31 C    0.974
    33   1 H    0.997 --     1 C    0.983
    34   1 H    0.998 --     1 C    0.985
    35   1 H    0.997 --     1 C    0.982
    36   1 H    0.997 --     4 C    0.983
    37   1 H    0.998 --     4 C    0.984
    38   1 H    0.998 --     4 C    0.985
    39   1 H    0.998 --     6 C    0.985
    40   1 H    0.997 --     6 C    0.982
    41   1 H    0.997 --     6 C    0.983
    42   1 H    0.998 --     7 C    0.984
    43   1 H    0.997 --     7 C    0.983
    44   1 H    0.998 --     7 C    0.984
    45   1 H    0.999 --    11 C    0.962
    46   1 H    0.997 --    20 C    0.983
    47   1 H    0.998 --    20 C    0.984
    48   1 H    0.997 --    20 C    0.982
    49   1 H    0.997 --    21 C    0.983
    50   1 H    0.998 --    21 C    0.984
    51   1 H    0.998 --    21 C    0.984
    52   1 H    0.998 --    23 C    0.984
    53   1 H    0.997 --    23 C    0.983
    54   1 H    0.998 --    23 C    0.984
    55   1 H    0.998 --    24 C    0.984
    56   1 H    0.997 --    24 C    0.982
    57   1 H    0.997 --    24 C    0.983
    58   1 H    0.998 --    26 C    0.967
    59   1 H    0.999 --    29 C    0.972
    60   1 H    0.999 --    30 C    0.964
 ---------------------------------------------------------------------------

molecular dipole:
                 x           y           z       tot (Debye)
 q only:       -0.261      -0.353       0.156
   full:       -0.102      -0.411       0.050       1.083

           -------------------------------------------------
          | TOTAL ENERGY              -82.297599176232 Eh   |
          | GRADIENT NORM               0.000373891208 Eh/α |
          | HOMO-LUMO GAP               3.153242972271 eV   |
           -------------------------------------------------

 * finished run on 2022/07/09 at 18:33:19.005
