   * xtb version 6.5.0 (homebrew) compiled by 'nhattrup@GPGGRP-SHANNON.CHEME.CMU.EDU' on
          program call               : /opt/homebrew/bin/xtb bvl_bpin2_scan_9-1_xtb.xyz --chrg 0 --uhf 0 --opt --input xcontrol_bvl_bpin2_scan_9-1_xtb

   ID    Z sym.   atoms
    1    6 C      1, 2, 4-7, 10-12, 14, 16, 19-24, 26, 27, 29-31
    2    8 O      3, 8, 18, 25
    3    5 B      9, 17
    4    1 H      13, 15, 28, 32-60
constraining bond 12 31 to    2.5000000 Å, actual value:    2.3851148 Å
constraining bond 10 29 to    2.3889000 Å, actual value:    2.4959206 Å

          :  Hamiltonian                  GFN2-xTB          :
 * total energy  :   -82.0885749 Eh     change       -0.1892701E-08 Eh
 * total energy  :   -82.2172095 Eh     change       -0.1286346E+00 Eh
 * total energy  :   -82.2618220 Eh     change       -0.4461249E-01 Eh
 * total energy  :   -82.2624642 Eh     change       -0.6422278E-03 Eh
 * total energy  :   -82.2632637 Eh     change       -0.7994655E-03 Eh
 * total energy  :   -82.2612832 Eh     change        0.1980556E-02 Eh
 * total energy  :   -82.2636895 Eh     change       -0.2406305E-02 Eh
 * total energy  :   -82.2639252 Eh     change       -0.2357152E-03 Eh
 * total energy  :   -82.2642459 Eh     change       -0.3207681E-03 Eh
 * total energy  :   -82.2644577 Eh     change       -0.2117482E-03 Eh
 * total energy  :   -82.2650487 Eh     change       -0.1670078E-04 Eh
 * total energy  :   -82.2650670 Eh     change       -0.1831925E-04 Eh
 * total energy  :   -82.2650824 Eh     change       -0.1540644E-04 Eh
 * total energy  :   -82.2650938 Eh     change       -0.1133085E-04 Eh
 * total energy  :   -82.2651031 Eh     change       -0.9376484E-05 Eh
 * total energy  :   -82.2651123 Eh     change       -0.9198245E-05 Eh
 * total energy  :   -82.2651210 Eh     change       -0.8683963E-05 Eh
 * total energy  :   -82.2651276 Eh     change       -0.6605466E-05 Eh
 * total energy  :   -82.2651318 Eh     change       -0.4160911E-05 Eh
   *** GEOMETRY OPTIMIZATION CONVERGED AFTER 43 ITERATIONS ***

 final structure:
================
60
 xtb: 6.5.0 (homebrew)
C            3.67945097805393      -37.63472185055504       15.88390894990134
C            3.76080434779938      -38.11309355511889       17.33195026075635
O            3.33045663945267      -37.06993822760568       18.20351886438640
C            2.78963683179498      -39.28473824504331       17.52769431081469
C            5.21256271161896      -38.43162279641473       17.84417132723099
C            5.56874607352639      -39.91615039143834       17.88516399057796
C            6.29849926830799      -37.67737035350985       17.06562040437477
O            5.21260544896064      -37.90610718769932       19.16969181182651
B            4.14863280632025      -37.05109112128486       19.30548631190470
C            3.87753663320997      -36.21518899251295       20.57308199172993
C            4.88944716078467      -36.02672274699898       21.52028929836356
C            4.90794274270392      -35.21659101761144       22.61593617745315
H            5.82341708845082      -35.14037043148959       23.18402478582426
C            3.82858657040245      -34.19119749870932       22.98275056892355
H            4.06416125468987      -33.80500979305821       23.97722985796171
C            2.46232037151689      -34.83300377365455       23.05856270801716
B            1.73694826589588      -34.87250393380747       24.43843523401605
O            2.25224130856753      -34.32734940574350       25.58277195902135
C            1.43026762120666      -34.70810388198528       26.68452922310448
C            1.26221227459506      -33.52137783422458       27.63085131234433
C            2.16813646072839      -35.83502152660087       27.41886073888669
C            0.10687969540796      -35.19508603982349       25.98924299696648
C           -0.96278048708024      -34.09852283106536       25.90744899011137
C           -0.51314536362477      -36.45297005762686       26.59393026412074
O            0.52528849804335      -35.46779667562873       24.65235748886524
C            1.91582966894469      -35.39409664932261       21.98008623494677
C            2.53951558310009      -35.44714091822117       20.62458601943066
H            1.85767963811225      -35.94603067313626       19.93326567719492
C            2.91202349211794      -34.10552092019014       20.02170142216554
C            3.55248069851748      -33.07205113824887       20.68230663866100
C            3.89804706544125      -33.01685035440092       22.00544290406622
H            4.44931102217178      -32.15678801627372       22.35632151252672
H            2.63722910353657      -37.45792245840065       15.62960570916037
H            4.08093797211864      -38.39153083406148       15.21540115503342
H            4.22154090724742      -36.70480376047031       15.74580249960646
H            1.78200820334756      -38.93754487663229       17.31023786561554
H            2.81261959501359      -39.62248229792164       18.56079239418636
H            3.02991463132763      -40.11012989700088       16.86436154165839
H            5.48703845042971      -40.35032629459901       16.89233702949938
H            4.92401321808100      -40.45502082987115       18.57176213208221
H            6.59336654757926      -40.02255463394189       18.23274419087804
H            6.38785753058413      -38.05319807252375       16.05080743657848
H            7.24774383419051      -37.81364698062543       17.57879738855706
H            6.07747827585687      -36.61301940128381       17.04707021865946
H            5.76990369701146      -36.63694060394478       21.34699281747082
H            2.22773980660986      -33.28034485766897       28.06878678970801
H            0.56761847914576      -33.77212318037226       28.42805797077276
H            0.90512196571472      -32.64432552967957       27.10088866963963
H            3.14404519527175      -35.46561010965132       27.72572226717548
H            2.32410844322279      -36.67837227143165       26.75082093430828
H            1.61930531102727      -36.15719856611195       28.29864127098206
H           -1.36012274735267      -33.86247748557132       26.89009482858116
H           -1.77210584676889      -34.45350070588982       25.27365762476806
H           -0.54861808146410      -33.20286604083114       25.45143321735921
H           -0.76149891681332      -36.28566904263814       27.63857854250956
H            0.15967979294769      -37.30024272723487       26.51141914409727
H           -1.42320914188565      -36.69228596662472       26.04951088650518
H            0.94773626515506      -35.86561718777342       22.08277475963544
H            2.82660455564201      -34.05510759907789       18.94687001380757
H            3.76996058362155      -32.19196894908168       20.08463046469144

          :  Hamiltonian                  GFN2-xTB          :
         :: total energy             -82.265131796912 Eh    ::
         :: gradient norm              0.000365173162 Eh/a0 ::
         :: HOMO-LUMO gap              0.890003506461 eV    ::
         :: SCC energy               -83.332872937784 Eh    ::
         :: -> dispersion             -0.062314884595 Eh    ::
         :: repulsion energy           1.066770386320 Eh    ::

    * Orbital Energies and Occupations

         #    Occupation            Energy/Eh            Energy/eV
      -------------------------------------------------------------
         1        2.0000           -0.6863683             -18.6770
       ...           ...                  ...                  ...
        63        2.0000           -0.4360756             -11.8662
        64        2.0000           -0.4310328             -11.7290
        65        2.0000           -0.4214966             -11.4695
        66        2.0000           -0.4191103             -11.4046
        67        2.0000           -0.4160007             -11.3200
        68        2.0000           -0.4136650             -11.2564
        69        2.0000           -0.4019285             -10.9370
        70        2.0000           -0.3983545             -10.8398
        71        2.0000           -0.3958573             -10.7718
        72        2.0000           -0.3955051             -10.7622
        73        2.0000           -0.3897694             -10.6062
        74        2.0000           -0.3666056              -9.9758
        75        2.0000           -0.3223218              -8.7708 (HOMO)
        76                         -0.2896148              -7.8808 (LUMO)
        77                         -0.2170812              -5.9071
        78                         -0.1830583              -4.9813
        79                         -0.1543259              -4.1994
        80                         -0.0938356              -2.5534
        81                         -0.0899009              -2.4463
        82                          0.0108246               0.2946
        83                          0.0138662               0.3773
        84                          0.0294986               0.8027
        85                          0.0302276               0.8225
        86                          0.0575934               1.5672
       ...                                ...                  ...
       144                          0.6747333              18.3604
      -------------------------------------------------------------
                  HL-Gap            0.0327070 Eh            0.8900 eV

     #   Z          covCN         q      C6AA      α(0)
     1   6 C        3.755    -0.116    22.786     6.806
     2   6 C        3.858     0.130    18.442     6.107
     3   8 O        1.638    -0.378    20.428     6.101
     4   6 C        3.755    -0.116    22.769     6.804
     5   6 C        3.858     0.130    18.442     6.107
     6   6 C        3.755    -0.117    22.796     6.808
     7   6 C        3.755    -0.115    22.757     6.802
     8   8 O        1.638    -0.375    20.386     6.095
     9   5 B        2.657     0.429    15.605     6.652
    10   6 C        2.882    -0.080    30.001     8.980
    11   6 C        2.891    -0.032    28.807     8.800
    12   6 C        2.892    -0.036    28.885     8.812
    13   1 H        0.926     0.029     2.600     2.522
    14   6 C        3.858    -0.017    20.844     6.493
    15   1 H        0.924     0.047     2.356     2.400
    16   6 C        2.866    -0.082    30.047     8.985
    17   5 B        2.660     0.430    15.577     6.644
    18   8 O        1.638    -0.370    20.294     6.081
    19   6 C        3.859     0.129    18.459     6.110
    20   6 C        3.755    -0.117    22.796     6.808
    21   6 C        3.755    -0.116    22.777     6.805
    22   6 C        3.859     0.129    18.458     6.110
    23   6 C        3.755    -0.116    22.783     6.806
    24   6 C        3.755    -0.117    22.805     6.809
    25   8 O        1.638    -0.370    20.291     6.080
    26   6 C        2.898    -0.027    28.673     8.780
    27   6 C        3.857    -0.011    20.741     6.477
    28   1 H        0.924     0.048     2.339     2.392
    29   6 C        2.910    -0.025    28.616     8.772
    30   6 C        2.888    -0.031    28.778     8.795
    31   6 C        2.893    -0.030    28.737     8.789
    32   1 H        0.926     0.031     2.572     2.508
    33   1 H        0.925     0.054     2.276     2.359
    34   1 H        0.925     0.039     2.464     2.455
    35   1 H        0.925     0.051     2.313     2.378
    36   1 H        0.925     0.051     2.304     2.374
    37   1 H        0.925     0.043     2.404     2.424
    38   1 H        0.925     0.042     2.427     2.436
    39   1 H        0.925     0.039     2.462     2.454
    40   1 H        0.925     0.052     2.297     2.370
    41   1 H        0.925     0.054     2.276     2.359
    42   1 H        0.925     0.042     2.424     2.435
    43   1 H        0.925     0.051     2.305     2.374
    44   1 H        0.925     0.042     2.421     2.433
    45   1 H        0.925     0.037     2.492     2.469
    46   1 H        0.925     0.054     2.272     2.357
    47   1 H        0.925     0.039     2.457     2.451
    48   1 H        0.925     0.052     2.299     2.371
    49   1 H        0.925     0.052     2.297     2.370
    50   1 H        0.925     0.044     2.399     2.422
    51   1 H        0.925     0.042     2.422     2.433
    52   1 H        0.925     0.042     2.417     2.431
    53   1 H        0.925     0.052     2.292     2.367
    54   1 H        0.925     0.044     2.401     2.423
    55   1 H        0.925     0.040     2.454     2.450
    56   1 H        0.925     0.052     2.295     2.369
    57   1 H        0.925     0.054     2.266     2.354
    58   1 H        0.925     0.036     2.496     2.471
    59   1 H        0.926     0.037     2.489     2.467
    60   1 H        0.925     0.028     2.616     2.529

Wiberg/Mayer (AO) data.
largest (>0.10) Wiberg bond orders for each atom

     #   Z sym  total        # sym  WBO       # sym  WBO       # sym  WBO
 ---------------------------------------------------------------------------
     1   6 C    3.994 --     2 C    0.996    34 H    0.985    33 H    0.983
                            35 H    0.982
     2   6 C    3.944 --     1 C    0.996     4 C    0.990     3 O    0.955
                             5 C    0.936
     3   8 O    2.216 --     9 B    1.110     2 C    0.955
     4   6 C    3.994 --     2 C    0.990    38 H    0.984    37 H    0.984
                            36 H    0.983
     5   6 C    3.943 --     6 C    0.996     7 C    0.990     8 O    0.955
                             2 C    0.936
     6   6 C    3.994 --     5 C    0.996    39 H    0.985    41 H    0.983
                            40 H    0.982
     7   6 C    3.994 --     5 C    0.990    42 H    0.984    44 H    0.984
                            43 H    0.983
     8   8 O    2.219 --     9 B    1.112     5 C    0.955
     9   5 B    3.391 --     8 O    1.112     3 O    1.110    10 C    1.035
    10   6 C    3.929 --    11 C    1.366     9 B    1.035    27 C    0.937
                            29 C    0.290    31 C    0.174
    11   6 C    3.991 --    12 C    1.581    10 C    1.366    45 H    0.959
    12   6 C    3.967 --    11 C    1.581    13 H    0.972    14 C    0.971
                            31 C    0.191    29 C    0.160
    13   1 H    0.999 --    12 C    0.972
    14   6 C    3.993 --    16 C    0.988    31 C    0.981    15 H    0.971
                            12 C    0.971
    15   1 H    0.998 --    14 C    0.971
    16   6 C    3.976 --    26 C    1.855    17 B    1.000    14 C    0.988
    17   5 B    3.376 --    25 O    1.131    18 O    1.128    16 C    1.000
    18   8 O    2.234 --    17 B    1.128    19 C    0.954
    19   6 C    3.943 --    20 C    0.997    21 C    0.990    18 O    0.954
                            22 C    0.936
    20   6 C    3.994 --    19 C    0.997    47 H    0.985    46 H    0.983
                            48 H    0.982
    21   6 C    3.994 --    19 C    0.990    51 H    0.985    50 H    0.984
                            49 H    0.983
    22   6 C    3.943 --    24 C    0.996    23 C    0.990    25 O    0.953
                            19 C    0.936
    23   6 C    3.995 --    22 C    0.990    52 H    0.984    54 H    0.984
                            53 H    0.983
    24   6 C    3.994 --    22 C    0.996    55 H    0.985    57 H    0.983
                            56 H    0.982
    25   8 O    2.235 --    17 B    1.131    22 C    0.953
    26   6 C    3.987 --    16 C    1.855    27 C    1.016    58 H    0.966
    27   6 C    3.992 --    26 C    1.016    29 C    0.984    28 H    0.969
                            10 C    0.937
    28   1 H    0.997 --    27 C    0.969
    29   6 C    3.946 --    30 C    1.429    27 C    0.984    59 H    0.972
                            10 C    0.290    12 C    0.160
    30   6 C    3.993 --    31 C    1.537    29 C    1.429    60 H    0.961
    31   6 C    3.950 --    30 C    1.537    14 C    0.981    32 H    0.973
                            12 C    0.191    10 C    0.174
    32   1 H    0.999 --    31 C    0.973
    33   1 H    0.997 --     1 C    0.983
    34   1 H    0.998 --     1 C    0.985
    35   1 H    0.997 --     1 C    0.982
    36   1 H    0.997 --     4 C    0.983
    37   1 H    0.998 --     4 C    0.984
    38   1 H    0.998 --     4 C    0.984
    39   1 H    0.998 --     6 C    0.985
    40   1 H    0.997 --     6 C    0.982
    41   1 H    0.997 --     6 C    0.983
    42   1 H    0.998 --     7 C    0.984
    43   1 H    0.997 --     7 C    0.983
    44   1 H    0.998 --     7 C    0.984
    45   1 H    0.998 --    11 C    0.959
    46   1 H    0.997 --    20 C    0.983
    47   1 H    0.998 --    20 C    0.985
    48   1 H    0.997 --    20 C    0.982
    49   1 H    0.997 --    21 C    0.983
    50   1 H    0.998 --    21 C    0.984
    51   1 H    0.998 --    21 C    0.985
    52   1 H    0.998 --    23 C    0.984
    53   1 H    0.997 --    23 C    0.983
    54   1 H    0.998 --    23 C    0.984
    55   1 H    0.998 --    24 C    0.985
    56   1 H    0.997 --    24 C    0.982
    57   1 H    0.997 --    24 C    0.983
    58   1 H    0.999 --    26 C    0.966
    59   1 H    0.998 --    29 C    0.972
    60   1 H    0.999 --    30 C    0.961
 ---------------------------------------------------------------------------

molecular dipole:
                 x           y           z       tot (Debye)
 q only:       -0.256      -0.273       0.081
   full:       -0.075      -0.315      -0.065       0.838

           -------------------------------------------------
          | TOTAL ENERGY              -82.265131796912 Eh   |
          | GRADIENT NORM               0.000365173162 Eh/α |
          | HOMO-LUMO GAP               0.890003506461 eV   |
           -------------------------------------------------

 * finished run on 2022/07/09 at 18:33:26.848
