   * xtb version 6.5.0 (homebrew) compiled by 'nhattrup@GPGGRP-SHANNON.CHEME.CMU.EDU' on
          program call               : /opt/homebrew/bin/xtb bvl_bpin2_scan_5-3_xtb.xyz --chrg 0 --uhf 0 --opt --input xcontrol_bvl_bpin2_scan_5-3_xtb

   ID    Z sym.   atoms
    1    6 C      1, 2, 4-7, 10-12, 14, 16, 19-24, 26, 27, 29-31
    2    8 O      3, 8, 18, 25
    3    5 B      9, 17
    4    1 H      13, 15, 28, 32-60
constraining bond 12 31 to    2.0556000 Å, actual value:    1.9402999 Å
constraining bond 10 29 to    2.1667000 Å, actual value:    2.2770407 Å

          :  Hamiltonian                  GFN2-xTB          :
 * total energy  :   -82.1140148 Eh     change       -0.1748830E-08 Eh
 * total energy  :   -82.2472833 Eh     change       -0.1332685E+00 Eh
 * total energy  :   -82.2898980 Eh     change       -0.4261466E-01 Eh
 * total energy  :   -82.2906646 Eh     change       -0.7666182E-03 Eh
 * total energy  :   -82.2902120 Eh     change        0.4525466E-03 Eh
 * total energy  :   -82.2894761 Eh     change        0.7359638E-03 Eh
 * total energy  :   -82.2915755 Eh     change       -0.2099455E-02 Eh
 * total energy  :   -82.2917773 Eh     change       -0.2018170E-03 Eh
 * total energy  :   -82.2919253 Eh     change       -0.1479502E-03 Eh
 * total energy  :   -82.2921833 Eh     change       -0.2579765E-03 Eh
 * total energy  :   -82.2928455 Eh     change       -0.2070874E-04 Eh
 * total energy  :   -82.2928573 Eh     change       -0.1174806E-04 Eh
 * total energy  :   -82.2928668 Eh     change       -0.9519368E-05 Eh
 * total energy  :   -82.2928796 Eh     change       -0.1285774E-04 Eh
 * total energy  :   -82.2928973 Eh     change       -0.1765190E-04 Eh
 * total energy  :   -82.2929132 Eh     change       -0.1593354E-04 Eh
 * total energy  :   -82.2929252 Eh     change       -0.1195705E-04 Eh
 * total energy  :   -82.2929358 Eh     change       -0.1064804E-04 Eh
 * total energy  :   -82.2929395 Eh     change       -0.3631338E-05 Eh
   *** GEOMETRY OPTIMIZATION CONVERGED AFTER 44 ITERATIONS ***

 final structure:
================
60
 xtb: 6.5.0 (homebrew)
C            3.47455848476422      -37.74582484227857       15.92981621821409
C            3.72826266405894      -38.18509005504312       17.37016639780912
O            3.24450004584678      -37.18614242728690       18.26591730568033
C            2.92775795322557      -39.46290319757072       17.65309539176813
C            5.24368200222197      -38.31506428652107       17.76639461061294
C            5.78403139998015      -39.74312487487116       17.78648943040381
C            6.16312782586429      -37.44330274780258       16.90112543616533
O            5.28104187751416      -37.77293312080350       19.08543141674163
B            4.13791007120872      -37.04845917830025       19.29647146717229
C            3.88148687021040      -36.18683982979768       20.55938445678824
C            4.91723260383703      -35.96510482526318       21.44990287092774
C            4.95478606024476      -35.12417878247692       22.54636671861837
H            5.90444717329605      -34.99538484903031       23.04610885604444
C            3.82544906268107      -34.29500932065316       23.08807305418100
H            4.05941453456023      -33.91988515526678       24.08384377110196
C            2.45130025658645      -34.89224183683829       23.10933960087902
B            1.69539328475905      -34.89671905573825       24.47448459852289
O            2.22400032453828      -34.39173208858334       25.63137309036543
C            1.35944953775590      -34.72640217358412       26.71580701595433
C            1.25231713605717      -33.53866636901600       27.66950356320827
C            2.00874581459339      -35.90514570500270       27.45221204090693
C            0.02002682100400      -35.12021575133471       25.99320540472837
C           -0.97203384109292      -33.95399127463569       25.89923832067739
C           -0.69413610254015      -36.33678902074342       26.57777647847917
O            0.44478760324638      -35.41342004894292       24.66213677750292
C            1.90336575908404      -35.43224064611692       22.02117051238276
C            2.52660552368153      -35.51249484805479       20.67162182201231
H            1.83662428660619      -35.99198281801047       19.97693107762891
C            3.05418849548702      -34.24824513683079       20.06420363327140
C            3.79632291740096      -33.29277932860494       20.70643145555301
C            4.18634249353422      -33.28916586703748       22.03808159390686
H            4.87134131821870      -32.51537815426185       22.35487349309352
H            2.40171520863490      -37.70061336121659       15.75937532914133
H            3.91087778934837      -38.46050418102210       15.23721575878580
H            3.88669431186239      -36.75999371041500       15.74048022656370
H            1.87116469310620      -39.24756950058440       17.51064158122168
H            3.07107241962950      -39.77394626924666       18.68487949304545
H            3.21837271616370      -40.26566482920607       16.98219497093055
H            5.67730655602712      -40.19950280724078       16.80607841011962
H            5.26866744710174      -40.34659646533470       18.52651280296726
H            6.83859035716351      -39.71665372419214       18.04945970852973
H            6.22404941463034      -37.82307741959275       15.88566497633497
H            7.15741204889380      -37.44848358944716       17.34199508142749
H            5.80699283486313      -36.41618514978979       16.89063440935287
H            5.84698404209914      -36.46274138920086       21.19874121263510
H            2.22170756592711      -33.36881487580305       28.13154307913016
H            0.52376775549811      -33.74693269420709       28.44834037864147
H            0.96920698786714      -32.63470589139094       27.14014237196007
H            3.00107489208526      -35.60317443004614       27.77952906385330
H            2.12116224782240      -36.75141024764097       26.77917442353542
H            1.42412594715615      -36.19769501561822       28.31914151299502
H           -1.37361168589554      -33.70021141228050       26.87569556401961
H           -1.78956116806090      -34.24878508228336       25.24550974227074
H           -0.48966179219288      -33.08403859595714       25.46100319286584
H           -0.95450221377494      -36.15667195512655       27.61732482625491
H           -0.07670718911433      -37.22621396860044       26.50663512494253
H           -1.60539754239691      -36.51392834905978       26.01202650607300
H            0.91374451605290      -35.85950518269589       22.11031789982882
H            2.91867326639063      -34.16057158772834       18.99638278773465
H            4.18744831467165      -32.48596069877267       20.09620168354856

          :  Hamiltonian                  GFN2-xTB          :
         :: total energy             -82.292939460055 Eh    ::
         :: gradient norm              0.000352323224 Eh/a0 ::
         :: HOMO-LUMO gap              2.511529369739 eV    ::
         :: SCC energy               -83.370858852401 Eh    ::
         :: -> dispersion             -0.062590482789 Eh    ::
         :: repulsion energy           1.077162150434 Eh    ::

    * Orbital Energies and Occupations

         #    Occupation            Energy/Eh            Energy/eV
      -------------------------------------------------------------
         1        2.0000           -0.6873325             -18.7033
       ...           ...                  ...                  ...
        63        2.0000           -0.4347222             -11.8294
        64        2.0000           -0.4310886             -11.7305
        65        2.0000           -0.4255093             -11.5787
        66        2.0000           -0.4207119             -11.4482
        67        2.0000           -0.4191252             -11.4050
        68        2.0000           -0.4150048             -11.2929
        69        2.0000           -0.4034585             -10.9787
        70        2.0000           -0.3970027             -10.8030
        71        2.0000           -0.3960438             -10.7769
        72        2.0000           -0.3925554             -10.6820
        73        2.0000           -0.3897553             -10.6058
        74        2.0000           -0.3574170              -9.7258
        75        2.0000           -0.3389231              -9.2226 (HOMO)
        76                         -0.2466261              -6.7110 (LUMO)
        77                         -0.2187843              -5.9534
        78                         -0.1883378              -5.1249
        79                         -0.1318872              -3.5888
        80                         -0.0973377              -2.6487
        81                         -0.0773389              -2.1045
        82                          0.0091512               0.2490
        83                          0.0122309               0.3328
        84                          0.0289529               0.7878
        85                          0.0300007               0.8164
        86                          0.0571278               1.5545
       ...                                ...                  ...
       144                          0.6858869              18.6639
      -------------------------------------------------------------
                  HL-Gap            0.0922970 Eh            2.5115 eV

     #   Z          covCN         q      C6AA      α(0)
     1   6 C        3.755    -0.117    22.787     6.807
     2   6 C        3.859     0.130    18.444     6.108
     3   8 O        1.638    -0.376    20.408     6.098
     4   6 C        3.755    -0.116    22.772     6.804
     5   6 C        3.859     0.130    18.444     6.108
     6   6 C        3.755    -0.117    22.798     6.808
     7   6 C        3.755    -0.115    22.761     6.803
     8   8 O        1.638    -0.375    20.386     6.095
     9   5 B        2.659     0.432    15.566     6.643
    10   6 C        3.050    -0.080    29.949     8.975
    11   6 C        2.892    -0.041    29.022     8.832
    12   6 C        3.269    -0.024    27.282     8.424
    13   1 H        0.926     0.029     2.601     2.522
    14   6 C        3.864    -0.011    20.723     6.474
    15   1 H        0.925     0.048     2.348     2.396
    16   6 C        2.864    -0.083    30.079     8.990
    17   5 B        2.661     0.431    15.565     6.641
    18   8 O        1.638    -0.372    20.323     6.085
    19   6 C        3.860     0.129    18.456     6.110
    20   6 C        3.755    -0.117    22.798     6.808
    21   6 C        3.755    -0.116    22.780     6.805
    22   6 C        3.860     0.129    18.457     6.110
    23   6 C        3.755    -0.116    22.786     6.806
    24   6 C        3.755    -0.118    22.808     6.810
    25   8 O        1.638    -0.369    20.276     6.078
    26   6 C        2.897    -0.025    28.637     8.774
    27   6 C        3.862    -0.011    20.738     6.476
    28   1 H        0.924     0.046     2.368     2.406
    29   6 C        3.078    -0.025    28.539     8.758
    30   6 C        2.888    -0.044    29.088     8.842
    31   6 C        3.271    -0.020    27.159     8.402
    32   1 H        0.926     0.030     2.589     2.516
    33   1 H        0.925     0.054     2.273     2.358
    34   1 H        0.925     0.039     2.462     2.454
    35   1 H        0.925     0.051     2.309     2.377
    36   1 H        0.925     0.052     2.301     2.372
    37   1 H        0.925     0.044     2.403     2.424
    38   1 H        0.925     0.042     2.425     2.435
    39   1 H        0.925     0.039     2.459     2.452
    40   1 H        0.925     0.052     2.295     2.369
    41   1 H        0.925     0.054     2.273     2.358
    42   1 H        0.925     0.042     2.422     2.434
    43   1 H        0.925     0.051     2.302     2.373
    44   1 H        0.925     0.042     2.417     2.431
    45   1 H        0.925     0.034     2.530     2.487
    46   1 H        0.925     0.054     2.271     2.357
    47   1 H        0.925     0.040     2.452     2.449
    48   1 H        0.925     0.052     2.295     2.369
    49   1 H        0.925     0.052     2.296     2.370
    50   1 H        0.925     0.044     2.398     2.422
    51   1 H        0.925     0.042     2.417     2.431
    52   1 H        0.925     0.043     2.413     2.429
    53   1 H        0.925     0.053     2.287     2.365
    54   1 H        0.925     0.044     2.398     2.421
    55   1 H        0.925     0.040     2.450     2.448
    56   1 H        0.925     0.052     2.293     2.368
    57   1 H        0.925     0.055     2.261     2.352
    58   1 H        0.925     0.038     2.480     2.463
    59   1 H        0.926     0.031     2.569     2.506
    60   1 H        0.925     0.023     2.682     2.561

Wiberg/Mayer (AO) data.
largest (>0.10) Wiberg bond orders for each atom

     #   Z sym  total        # sym  WBO       # sym  WBO       # sym  WBO
 ---------------------------------------------------------------------------
     1   6 C    3.994 --     2 C    0.997    34 H    0.985    33 H    0.983
                            35 H    0.982
     2   6 C    3.944 --     1 C    0.997     4 C    0.990     3 O    0.954
                             5 C    0.937
     3   8 O    2.221 --     9 B    1.116     2 C    0.954
     4   6 C    3.994 --     2 C    0.990    38 H    0.984    37 H    0.984
                            36 H    0.983
     5   6 C    3.943 --     6 C    0.996     7 C    0.990     8 O    0.954
                             2 C    0.937
     6   6 C    3.994 --     5 C    0.996    39 H    0.985    41 H    0.983
                            40 H    0.982
     7   6 C    3.995 --     5 C    0.990    42 H    0.985    44 H    0.984
                            43 H    0.983
     8   8 O    2.223 --     9 B    1.119     5 C    0.954
     9   5 B    3.384 --     8 O    1.119     3 O    1.116    10 C    1.021
    10   6 C    3.946 --    11 C    1.464     9 B    1.021    27 C    0.941
                            29 C    0.259    31 C    0.135
    11   6 C    3.991 --    10 C    1.464    12 C    1.438    45 H    0.961
    12   6 C    3.953 --    11 C    1.438    13 H    0.973    14 C    0.955
                            31 C    0.376    29 C    0.131
    13   1 H    0.999 --    12 C    0.973
    14   6 C    3.986 --    16 C    1.002    15 H    0.968    31 C    0.967
                            12 C    0.955
    15   1 H    0.997 --    14 C    0.968
    16   6 C    3.977 --    26 C    1.850    14 C    1.002    17 B    0.999
    17   5 B    3.376 --    25 O    1.134    18 O    1.127    16 C    0.999
    18   8 O    2.233 --    17 B    1.127    19 C    0.953
    19   6 C    3.943 --    20 C    0.997    21 C    0.991    18 O    0.953
                            22 C    0.936
    20   6 C    3.994 --    19 C    0.997    47 H    0.984    46 H    0.983
                            48 H    0.982
    21   6 C    3.994 --    19 C    0.991    51 H    0.984    50 H    0.984
                            49 H    0.983
    22   6 C    3.942 --    24 C    0.996    23 C    0.991    25 O    0.953
                            19 C    0.936
    23   6 C    3.995 --    22 C    0.991    52 H    0.984    54 H    0.984
                            53 H    0.983
    24   6 C    3.994 --    22 C    0.996    55 H    0.985    57 H    0.983
                            56 H    0.982
    25   8 O    2.237 --    17 B    1.134    22 C    0.953
    26   6 C    3.987 --    16 C    1.850    27 C    1.016    58 H    0.967
    27   6 C    3.991 --    26 C    1.016    29 C    0.973    28 H    0.969
                            10 C    0.941
    28   1 H    0.998 --    27 C    0.969
    29   6 C    3.961 --    30 C    1.524    27 C    0.973    59 H    0.972
                            10 C    0.259    12 C    0.131
    30   6 C    3.990 --    29 C    1.524    31 C    1.406    60 H    0.964
    31   6 C    3.941 --    30 C    1.406    32 H    0.974    14 C    0.967
                            12 C    0.376    10 C    0.135
    32   1 H    0.999 --    31 C    0.974
    33   1 H    0.997 --     1 C    0.983
    34   1 H    0.998 --     1 C    0.985
    35   1 H    0.997 --     1 C    0.982
    36   1 H    0.997 --     4 C    0.983
    37   1 H    0.998 --     4 C    0.984
    38   1 H    0.998 --     4 C    0.984
    39   1 H    0.998 --     6 C    0.985
    40   1 H    0.997 --     6 C    0.982
    41   1 H    0.997 --     6 C    0.983
    42   1 H    0.998 --     7 C    0.985
    43   1 H    0.997 --     7 C    0.983
    44   1 H    0.998 --     7 C    0.984
    45   1 H    0.999 --    11 C    0.961
    46   1 H    0.997 --    20 C    0.983
    47   1 H    0.998 --    20 C    0.984
    48   1 H    0.997 --    20 C    0.982
    49   1 H    0.997 --    21 C    0.983
    50   1 H    0.998 --    21 C    0.984
    51   1 H    0.998 --    21 C    0.984
    52   1 H    0.998 --    23 C    0.984
    53   1 H    0.997 --    23 C    0.983
    54   1 H    0.998 --    23 C    0.984
    55   1 H    0.998 --    24 C    0.985
    56   1 H    0.997 --    24 C    0.982
    57   1 H    0.997 --    24 C    0.983
    58   1 H    0.998 --    26 C    0.967
    59   1 H    0.999 --    29 C    0.972
    60   1 H    0.999 --    30 C    0.964
 ---------------------------------------------------------------------------

molecular dipole:
                 x           y           z       tot (Debye)
 q only:       -0.258      -0.297       0.177
   full:       -0.082      -0.342       0.053       0.904

           -------------------------------------------------
          | TOTAL ENERGY              -82.292939460055 Eh   |
          | GRADIENT NORM               0.000352323224 Eh/α |
          | HOMO-LUMO GAP               2.511529369739 eV   |
           -------------------------------------------------

 * finished run on 2022/07/09 at 18:33:18.295
