   * xtb version 6.5.0 (homebrew) compiled by 'nhattrup@GPGGRP-SHANNON.CHEME.CMU.EDU' on
          program call               : /opt/homebrew/bin/xtb bvl_bpin2_scan_2-0_xtb.xyz --chrg 0 --uhf 0 --opt --input xcontrol_bvl_bpin2_scan_2-0_xtb

   ID    Z sym.   atoms
    1    6 C      1, 2, 4-7, 10-12, 14, 16, 19-24, 26, 27, 29-31
    2    8 O      3, 8, 18, 25
    3    5 B      9, 17
    4    1 H      13, 15, 28, 32-60
constraining bond 12 31 to    1.7222000 Å, actual value:    1.6071487 Å
constraining bond 10 29 to    2.5000000 Å, actual value:    2.4994423 Å

          :  Hamiltonian                  GFN2-xTB          :
 * total energy  :   -82.2251744 Eh     change       -0.2497444E-08 Eh
 * total energy  :   -82.2807479 Eh     change       -0.5557349E-01 Eh
 * total energy  :   -82.3106451 Eh     change       -0.2989719E-01 Eh
 * total energy  :   -82.3109010 Eh     change       -0.2559178E-03 Eh
 * total energy  :   -82.3110102 Eh     change       -0.1091478E-03 Eh
 * total energy  :   -82.3087451 Eh     change        0.2265085E-02 Eh
 * total energy  :   -82.3110685 Eh     change       -0.2323405E-02 Eh
 * total energy  :   -82.3110803 Eh     change       -0.1176517E-04 Eh
 * total energy  :   -82.3111004 Eh     change       -0.2018998E-04 Eh
 * total energy  :   -82.3111140 Eh     change       -0.1353087E-04 Eh
 * total energy  :   -82.3111236 Eh     change       -0.9617855E-05 Eh
 * total energy  :   -82.3111319 Eh     change       -0.8314328E-05 Eh
 * total energy  :   -82.3111421 Eh     change       -0.1021665E-04 Eh
 * total energy  :   -82.3111497 Eh     change       -0.7577836E-05 Eh
 * total energy  :   -82.3111588 Eh     change       -0.9131533E-05 Eh
 * total energy  :   -82.3111650 Eh     change       -0.6166148E-05 Eh
 * total energy  :   -82.3111745 Eh     change       -0.9479327E-05 Eh
 * total energy  :   -82.3111806 Eh     change       -0.6110457E-05 Eh
 * total energy  :   -82.3111845 Eh     change       -0.3879073E-05 Eh
   *** GEOMETRY OPTIMIZATION CONVERGED AFTER 19 ITERATIONS ***

 final structure:
================
60
 xtb: 6.5.0 (homebrew)
C            3.41172051435879      -38.10818504651116       16.16533697697827
C            3.62455008870493      -38.27098147929677       17.66936182779899
O            3.23932646716119      -37.07100685145355       18.33668323230070
C            2.70261167631790      -39.38305214336051       18.18617420063959
C            5.12373024944362      -38.46154657648734       18.10798230308425
C            5.51036240139823      -39.89325569384387       18.47461621174105
C            6.12497497880848      -37.92176096132297       17.07839922648897
O            5.23298904112012      -37.63492418610257       19.26459252845446
B            4.15943154084975      -36.78665917313072       19.30888516876309
C            4.00839211081633      -35.65387485672264       20.36100065778801
C            5.03642884767648      -35.35311136373095       21.17629639292645
C            5.08643406933021      -34.37260539103875       22.22855182179254
H            6.03939829151325      -34.25500136072235       22.72234847957322
C            3.88101863968400      -33.90427894579668       23.02113887219338
H            4.11168558360277      -33.65254511126229       24.05176795355121
C            2.57623364677165      -34.60009303045240       22.92433861275123
B            1.81643777675458      -34.85435651342974       24.26454394210138
O            2.34986794834399      -34.59330828149998       25.49772801485030
C            1.46857782492859      -35.11245301120753       26.49371757140769
C            1.40142771836550      -34.14386223221224       27.67173346466024
C            2.06644324682187      -36.44362619304896       26.96671967121515
C            0.12202030762261      -35.29883780366747       25.70729708520858
C           -0.80380355917214      -34.08116023551143       25.82168295697118
C           -0.66155062591072      -36.56153401653675       26.05596879180569
O            0.55203267882705      -35.36510015530004       24.34717035592639
C            2.05799161011717      -35.02417813012361       21.76577828447590
C            2.69085398204696      -34.88227272491130       20.41363936288997
H            2.02852580518341      -35.32269117207514       19.66579717050023
C            2.91131741816312      -33.42935791978571       20.05616003325696
C            3.64137121302893      -32.57648629684229       20.77352896501706
C            4.31006278722859      -32.85600075586981       22.02479209121228
H            4.91648830239560      -32.05649263599590       22.42416361909451
H            2.34800316276170      -37.99682497119511       15.96989396766603
H            3.77580610316999      -38.98541272775223       15.63727866480061
H            3.91630633654724      -37.22370388788018       15.79025895395278
H            1.67292301425423      -39.10198666117164       17.97703139190671
H            2.80889489814460      -39.48900104229775       19.26279154135205
H            2.91637617388401      -40.32985053975928       17.69926126755135
H            5.36406064700873      -40.55443390812270       17.62481379324521
H            4.92975698071284      -40.25115575640783       19.31856542321954
H            6.55981249134706      -39.91048673650720       18.75804064038268
H            6.12577445851516      -38.52491707563380       16.17550038151048
H            7.11848879633214      -37.94501925858842       17.52043733767110
H            5.89252894502972      -36.88878783472980       16.83235029333065
H            5.95318499366741      -35.91426294635209       21.03670086678114
H            2.37461992805790      -34.10874002102881       28.15524342164580
H            0.66243553252187      -34.48088513895483       28.39362726462700
H            1.15372151440555      -33.14050524013940       27.34083483166186
H            3.07219388416907      -36.25930901267385       27.33741894715870
H            2.13803441256341      -37.13821574633093       26.13336246280615
H            1.47079930747035      -36.88162820451370       27.76201958300303
H           -1.21111470104872      -33.98889589623717       26.82404685823639
H           -1.62190036832033      -34.20264550892880       25.11556624825971
H           -0.26462039083123      -33.17490759646902       25.55704447309004
H           -0.91280956777215      -36.56927701784344       27.11316155845120
H           -0.09487553789453      -37.45378417329844       25.81061665813214
H           -1.58056011676213      -36.57607293499494       25.47541792344840
H            1.10087217661058      -35.52682626240035       21.80257293092091
H            2.47880117311045      -33.09874955250336       19.12318807308419
H            3.77888317004234      -31.56607409803077       20.40485839468514

          :  Hamiltonian                  GFN2-xTB          :
         :: total energy             -82.311184470609 Eh    ::
         :: gradient norm              0.000719785685 Eh/a0 ::
         :: HOMO-LUMO gap              3.115457629952 eV    ::
         :: SCC energy               -83.385390827275 Eh    ::
         :: -> dispersion             -0.061089458912 Eh    ::
         :: repulsion energy           1.073112127805 Eh    ::

    * Orbital Energies and Occupations

         #    Occupation            Energy/Eh            Energy/eV
      -------------------------------------------------------------
         1        2.0000           -0.6883313             -18.7304
       ...           ...                  ...                  ...
        63        2.0000           -0.4367914             -11.8857
        64        2.0000           -0.4340203             -11.8103
        65        2.0000           -0.4259647             -11.5911
        66        2.0000           -0.4201105             -11.4318
        67        2.0000           -0.4182389             -11.3809
        68        2.0000           -0.4117426             -11.2041
        69        2.0000           -0.4054518             -11.0329
        70        2.0000           -0.3979883             -10.8298
        71        2.0000           -0.3954047             -10.7595
        72        2.0000           -0.3948363             -10.7440
        73        2.0000           -0.3900306             -10.6133
        74        2.0000           -0.3580165              -9.7421
        75        2.0000           -0.3412969              -9.2872 (HOMO)
        76                         -0.2268060              -6.1717 (LUMO)
        77                         -0.2169165              -5.9026
        78                         -0.1900840              -5.1724
        79                         -0.1038843              -2.8268
        80                         -0.0970628              -2.6412
        81                         -0.0458550              -1.2478
        82                          0.0083494               0.2272
        83                          0.0128047               0.3484
        84                          0.0289996               0.7891
        85                          0.0304468               0.8285
        86                          0.0567446               1.5441
       ...                                ...                  ...
       144                          0.6734779              18.3263
      -------------------------------------------------------------
                  HL-Gap            0.1144910 Eh            3.1155 eV

     #   Z          covCN         q      C6AA      α(0)
     1   6 C        3.755    -0.117    22.791     6.807
     2   6 C        3.857     0.129    18.456     6.110
     3   8 O        1.638    -0.372    20.315     6.084
     4   6 C        3.755    -0.116    22.767     6.804
     5   6 C        3.857     0.129    18.453     6.109
     6   6 C        3.755    -0.117    22.796     6.808
     7   6 C        3.755    -0.116    22.771     6.804
     8   8 O        1.638    -0.375    20.372     6.093
     9   5 B        2.657     0.431    15.585     6.648
    10   6 C        2.870    -0.089    30.216     9.011
    11   6 C        2.894    -0.028    28.700     8.784
    12   6 C        3.801    -0.021    20.947     6.516
    13   1 H        0.926     0.032     2.553     2.499
    14   6 C        3.863    -0.008    20.684     6.468
    15   1 H        0.925     0.045     2.383     2.414
    16   6 C        2.863    -0.087    30.164     9.002
    17   5 B        2.665     0.432    15.536     6.632
    18   8 O        1.638    -0.374    20.362     6.091
    19   6 C        3.861     0.129    18.451     6.109
    20   6 C        3.755    -0.117    22.800     6.808
    21   6 C        3.755    -0.116    22.781     6.806
    22   6 C        3.863     0.129    18.451     6.109
    23   6 C        3.755    -0.116    22.786     6.806
    24   6 C        3.755    -0.118    22.807     6.809
    25   8 O        1.638    -0.371    20.298     6.082
    26   6 C        2.903    -0.025    28.620     8.772
    27   6 C        3.861    -0.017    20.844     6.493
    28   1 H        0.924     0.044     2.392     2.418
    29   6 C        2.896    -0.037    28.915     8.816
    30   6 C        2.888    -0.036    28.882     8.811
    31   6 C        3.803    -0.019    20.909     6.510
    32   1 H        0.926     0.032     2.564     2.504
    33   1 H        0.925     0.054     2.274     2.358
    34   1 H        0.925     0.039     2.462     2.454
    35   1 H        0.925     0.051     2.305     2.374
    36   1 H        0.925     0.052     2.297     2.370
    37   1 H        0.925     0.043     2.406     2.425
    38   1 H        0.925     0.042     2.429     2.437
    39   1 H        0.925     0.039     2.459     2.452
    40   1 H        0.925     0.051     2.304     2.374
    41   1 H        0.925     0.054     2.275     2.359
    42   1 H        0.925     0.042     2.424     2.435
    43   1 H        0.925     0.051     2.302     2.373
    44   1 H        0.925     0.043     2.405     2.425
    45   1 H        0.925     0.036     2.499     2.472
    46   1 H        0.925     0.054     2.267     2.355
    47   1 H        0.925     0.040     2.450     2.448
    48   1 H        0.925     0.052     2.292     2.367
    49   1 H        0.925     0.052     2.295     2.369
    50   1 H        0.925     0.044     2.401     2.423
    51   1 H        0.925     0.043     2.413     2.429
    52   1 H        0.925     0.043     2.410     2.428
    53   1 H        0.925     0.053     2.285     2.364
    54   1 H        0.925     0.044     2.400     2.423
    55   1 H        0.925     0.040     2.448     2.447
    56   1 H        0.925     0.052     2.290     2.366
    57   1 H        0.925     0.055     2.259     2.350
    58   1 H        0.925     0.036     2.500     2.472
    59   1 H        0.926     0.027     2.635     2.538
    60   1 H        0.925     0.025     2.663     2.552

Wiberg/Mayer (AO) data.
largest (>0.10) Wiberg bond orders for each atom

     #   Z sym  total        # sym  WBO       # sym  WBO       # sym  WBO
 ---------------------------------------------------------------------------
     1   6 C    3.994 --     2 C    0.996    34 H    0.985    33 H    0.983
                            35 H    0.982
     2   6 C    3.944 --     1 C    0.996     4 C    0.991     3 O    0.955
                             5 C    0.936
     3   8 O    2.231 --     9 B    1.124     2 C    0.955
     4   6 C    3.994 --     2 C    0.991    38 H    0.985    37 H    0.984
                            36 H    0.983
     5   6 C    3.943 --     6 C    0.996     7 C    0.990     8 O    0.955
                             2 C    0.936
     6   6 C    3.994 --     5 C    0.996    39 H    0.985    41 H    0.983
                            40 H    0.982
     7   6 C    3.995 --     5 C    0.990    42 H    0.985    44 H    0.984
                            43 H    0.983
     8   8 O    2.227 --     9 B    1.121     5 C    0.955
     9   5 B    3.379 --     3 O    1.124     8 O    1.121    10 C    1.011
    10   6 C    3.974 --    11 C    1.747     9 B    1.011    27 C    0.960
    11   6 C    3.990 --    10 C    1.747    12 C    1.148    45 H    0.961
    12   6 C    3.939 --    11 C    1.148    13 H    0.975    14 C    0.911
                            31 C    0.758
    13   1 H    0.999 --    12 C    0.975
    14   6 C    3.967 --    16 C    1.040    15 H    0.968    31 C    0.932
                            12 C    0.911
    15   1 H    0.998 --    14 C    0.968
    16   6 C    3.978 --    26 C    1.817    14 C    1.040    17 B    0.997
    17   5 B    3.375 --    25 O    1.133    18 O    1.127    16 C    0.997
    18   8 O    2.231 --    17 B    1.127    19 C    0.952
    19   6 C    3.943 --    20 C    0.997    21 C    0.991    18 O    0.952
                            22 C    0.937
    20   6 C    3.994 --    19 C    0.997    47 H    0.984    46 H    0.983
                            48 H    0.982
    21   6 C    3.994 --    19 C    0.991    51 H    0.984    50 H    0.984
                            49 H    0.983
    22   6 C    3.942 --    24 C    0.997    23 C    0.991    25 O    0.952
                            19 C    0.937
    23   6 C    3.995 --    22 C    0.991    52 H    0.984    54 H    0.984
                            53 H    0.983
    24   6 C    3.994 --    22 C    0.997    55 H    0.984    57 H    0.983
                            56 H    0.982
    25   8 O    2.236 --    17 B    1.133    22 C    0.952
    26   6 C    3.986 --    16 C    1.817    27 C    0.997    58 H    0.967
    27   6 C    3.995 --    26 C    0.997    29 C    0.982    28 H    0.972
                            10 C    0.960
    28   1 H    0.998 --    27 C    0.972
    29   6 C    3.988 --    30 C    1.829    27 C    0.982    59 H    0.970
    30   6 C    3.991 --    29 C    1.829    31 C    1.122    60 H    0.964
    31   6 C    3.933 --    30 C    1.122    32 H    0.975    14 C    0.932
                            12 C    0.758
    32   1 H    0.999 --    31 C    0.975
    33   1 H    0.997 --     1 C    0.983
    34   1 H    0.998 --     1 C    0.985
    35   1 H    0.997 --     1 C    0.982
    36   1 H    0.997 --     4 C    0.983
    37   1 H    0.998 --     4 C    0.984
    38   1 H    0.998 --     4 C    0.985
    39   1 H    0.998 --     6 C    0.985
    40   1 H    0.997 --     6 C    0.982
    41   1 H    0.997 --     6 C    0.983
    42   1 H    0.998 --     7 C    0.985
    43   1 H    0.997 --     7 C    0.983
    44   1 H    0.998 --     7 C    0.984
    45   1 H    0.999 --    11 C    0.961
    46   1 H    0.997 --    20 C    0.983
    47   1 H    0.998 --    20 C    0.984
    48   1 H    0.997 --    20 C    0.982
    49   1 H    0.997 --    21 C    0.983
    50   1 H    0.998 --    21 C    0.984
    51   1 H    0.998 --    21 C    0.984
    52   1 H    0.998 --    23 C    0.984
    53   1 H    0.997 --    23 C    0.983
    54   1 H    0.998 --    23 C    0.984
    55   1 H    0.998 --    24 C    0.984
    56   1 H    0.997 --    24 C    0.982
    57   1 H    0.997 --    24 C    0.983
    58   1 H    0.999 --    26 C    0.967
    59   1 H    0.999 --    29 C    0.970
    60   1 H    0.999 --    30 C    0.964
 ---------------------------------------------------------------------------

molecular dipole:
                 x           y           z       tot (Debye)
 q only:       -0.220      -0.506       0.329
   full:       -0.163      -0.619       0.354       1.859

           -------------------------------------------------
          | TOTAL ENERGY              -82.311184470609 Eh   |
          | GRADIENT NORM               0.000719785685 Eh/α |
          | HOMO-LUMO GAP               3.115457629952 eV   |
           -------------------------------------------------

 * finished run on 2022/07/09 at 18:32:55.326
