   * xtb version 6.5.0 (homebrew) compiled by 'nhattrup@GPGGRP-SHANNON.CHEME.CMU.EDU' on
          program call               : /opt/homebrew/bin/xtb bvl_bpin2_scan_6-2_xtb.xyz --chrg 0 --uhf 0 --opt --input xcontrol_bvl_bpin2_scan_6-2_xtb

   ID    Z sym.   atoms
    1    6 C      1, 2, 4-7, 10-12, 14, 16, 19-24, 26, 27, 29-31
    2    8 O      3, 8, 18, 25
    3    5 B      9, 17
    4    1 H      13, 15, 28, 32-60
constraining bond 12 31 to    2.1667000 Å, actual value:    2.0516528 Å
constraining bond 10 29 to    2.2778000 Å, actual value:    2.3868095 Å

          :  Hamiltonian                  GFN2-xTB          :
 * total energy  :   -82.1080534 Eh     change       -0.1188951E-08 Eh
 * total energy  :   -82.2391027 Eh     change       -0.1310493E+00 Eh
 * total energy  :   -82.2825049 Eh     change       -0.4340220E-01 Eh
 * total energy  :   -82.2832283 Eh     change       -0.7234784E-03 Eh
 * total energy  :   -82.2835577 Eh     change       -0.3293589E-03 Eh
 * total energy  :   -82.2800384 Eh     change        0.3519332E-02 Eh
 * total energy  :   -82.2842361 Eh     change       -0.4197699E-02 Eh
 * total energy  :   -82.2844309 Eh     change       -0.1948047E-03 Eh
 * total energy  :   -82.2846110 Eh     change       -0.1801361E-03 Eh
 * total energy  :   -82.2849174 Eh     change       -0.3063932E-03 Eh
 * total energy  :   -82.2854365 Eh     change       -0.2195507E-04 Eh
 * total energy  :   -82.2854584 Eh     change       -0.2188809E-04 Eh
 * total energy  :   -82.2854739 Eh     change       -0.1553963E-04 Eh
 * total energy  :   -82.2854846 Eh     change       -0.1064932E-04 Eh
 * total energy  :   -82.2854938 Eh     change       -0.9293268E-05 Eh
 * total energy  :   -82.2855028 Eh     change       -0.8921888E-05 Eh
 * total energy  :   -82.2855101 Eh     change       -0.7346025E-05 Eh
 * total energy  :   -82.2855151 Eh     change       -0.5018941E-05 Eh
 * total energy  :   -82.2855192 Eh     change       -0.4038826E-05 Eh
   *** GEOMETRY OPTIMIZATION CONVERGED AFTER 42 ITERATIONS ***

 final structure:
================
60
 xtb: 6.5.0 (homebrew)
C            3.55745904316520      -37.73260286960628       15.92600128375869
C            3.73473594667302      -38.17131485260597       17.37809554632011
O            3.27051890438347      -37.14034586141964       18.24697172350116
C            2.85814604001006      -39.40286114893005       17.63983288758633
C            5.22647149156866      -38.37580421716720       17.83069580478180
C            5.68696915528990      -39.83059510258473       17.89181436618756
C            6.22239059953829      -37.57056665455023       16.98582574769710
O            5.24834554261646      -37.81449922246181       19.14147472731343
B            4.13572802712723      -37.03132082906505       19.30502678705143
C            3.87829536924740      -36.15109310062788       20.55163138229231
C            4.91288646721549      -35.90125999933304       21.43748216829757
C            4.94139162620109      -35.06628586971681       22.53429374338660
H            5.89155872193602      -34.91296279226423       23.02581718687927
C            3.81058278324797      -34.20730796984495       23.03946689639648
H            4.03991412644956      -33.83089261616140       24.03691957814335
C            2.44765868471459      -34.83690623266224       23.07374630918346
B            1.70718969412175      -34.87695882762011       24.44627148664907
O            2.23826932451419      -34.38182524993663       25.60640726883285
C            1.39399402897513      -34.75654881630800       26.69370121299803
C            1.27613316455076      -33.59253791210597       27.67490360829366
C            2.07451251148473      -35.93879135980927       27.39567778352916
C            0.05388359832032      -35.16068819342570       25.97866307323978
C           -0.95832669831778      -34.00976065438549       25.91583250687942
C           -0.63292390186624      -36.39939941574202       26.54932085542873
O            0.46942684541207      -35.42271823889359       24.63830213126286
C            1.90462615569297      -35.38326507307777       21.98635590036379
C            2.52990980839794      -35.43983029021598       20.63354125277744
H            1.84616999843437      -35.93055848171104       19.93936824005889
C            2.97067425696086      -34.12907497119211       20.03706579111363
C            3.70086178045857      -33.16467186192646       20.68060724907142
C            4.08803615191319      -33.14825438831942       22.00965860767397
H            4.76133683755959      -32.36393884862176       22.32542583545068
H            2.49537294908476      -37.63572226173392       15.71458974002339
H            3.98334605482809      -38.47376408196931       15.25509888763369
H            4.02493980678278      -36.76991451316616       15.74630494556702
H            1.82049137900318      -39.13300789177313       17.45675392394274
H            2.94628620432177      -39.71252853397797       18.67819961218011
H            3.13012730718553      -40.22544073237056       16.98528361788579
H            5.59566679456634      -40.29555546823624       16.91390570422784
H            5.11011310021332      -40.39422509947581       18.61769026239171
H            6.72980624509561      -39.85666735031955       18.19806041565991
H            6.29462599627844      -37.96711088174488       15.97758203832174
H            7.19977006325412      -37.62687488991475       17.45969228761972
H            5.92685838737473      -36.52489544344403       16.95116627102904
H            5.83977731639933      -36.41485852714640       21.20645628887245
H            2.24862651535209      -33.41213959582392       28.12636867867703
H            0.56394830093231      -33.83360342775571       28.45945841669261
H            0.96592048353904      -32.68342727261913       27.17005805025968
H            3.06565703674434      -35.62587196494965       27.71620253408718
H            2.19277905168501      -36.76814413179035       26.70276710295846
H            1.50722252157733      -36.26068014849120       28.26378787597105
H           -1.35406834603277      -33.78030310654623       26.90071672090487
H           -1.77739163508046      -34.30634493301994       25.26479951699493
H           -0.49461415751221      -33.12422827949146       25.48858498459384
H           -0.87958268817208      -36.24417336480951       27.59623360357608
H           -0.00316572288066      -37.27748051177312       26.45062443442701
H           -1.55021380499146      -36.57935640602381       25.99430044705550
H            0.92744923155264      -35.83747291827059       22.07958250726720
H            2.82816708891788      -34.04035040668497       18.97045299915822
H            4.03901843390567      -32.32736593447228       20.07891918957867

          :  Hamiltonian                  GFN2-xTB          :
         :: total energy             -82.285519172338 Eh    ::
         :: gradient norm              0.000409375227 Eh/a0 ::
         :: HOMO-LUMO gap              1.866083811843 eV    ::
         :: SCC energy               -83.360882003258 Eh    ::
         :: -> dispersion             -0.062556517347 Eh    ::
         :: repulsion energy           1.074533110177 Eh    ::

    * Orbital Energies and Occupations

         #    Occupation            Energy/Eh            Energy/eV
      -------------------------------------------------------------
         1        2.0000           -0.6869330             -18.6924
       ...           ...                  ...                  ...
        63        2.0000           -0.4353091             -11.8454
        64        2.0000           -0.4304821             -11.7140
        65        2.0000           -0.4232226             -11.5165
        66        2.0000           -0.4201165             -11.4320
        67        2.0000           -0.4185900             -11.3904
        68        2.0000           -0.4145132             -11.2795
        69        2.0000           -0.4014115             -10.9230
        70        2.0000           -0.3965976             -10.7920
        71        2.0000           -0.3957141             -10.7679
        72        2.0000           -0.3940678             -10.7231
        73        2.0000           -0.3916983             -10.6587
        74        2.0000           -0.3623804              -9.8609
        75        2.0000           -0.3324046              -9.0452 (HOMO)
        76                         -0.2638273              -7.1791 (LUMO)
        77                         -0.2188503              -5.9552
        78                         -0.1865691              -5.0768
        79                         -0.1401898              -3.8148
        80                         -0.0966043              -2.6287
        81                         -0.0836444              -2.2761
        82                          0.0097279               0.2647
        83                          0.0132653               0.3610
        84                          0.0293204               0.7978
        85                          0.0302733               0.8238
        86                          0.0573619               1.5609
       ...                                ...                  ...
       144                          0.6814169              18.5423
      -------------------------------------------------------------
                  HL-Gap            0.0685773 Eh            1.8661 eV

     #   Z          covCN         q      C6AA      α(0)
     1   6 C        3.755    -0.117    22.787     6.806
     2   6 C        3.858     0.130    18.445     6.108
     3   8 O        1.638    -0.376    20.404     6.097
     4   6 C        3.755    -0.116    22.769     6.804
     5   6 C        3.858     0.130    18.444     6.108
     6   6 C        3.755    -0.117    22.797     6.808
     7   6 C        3.755    -0.115    22.760     6.802
     8   8 O        1.638    -0.375    20.389     6.095
     9   5 B        2.658     0.430    15.584     6.647
    10   6 C        2.934    -0.082    30.061     8.992
    11   6 C        2.892    -0.037    28.915     8.816
    12   6 C        3.077    -0.027    28.596     8.767
    13   1 H        0.926     0.029     2.598     2.520
    14   6 C        3.863    -0.011    20.724     6.474
    15   1 H        0.924     0.048     2.339     2.392
    16   6 C        2.864    -0.083    30.080     8.990
    17   5 B        2.661     0.431    15.566     6.641
    18   8 O        1.638    -0.372    20.320     6.085
    19   6 C        3.860     0.129    18.456     6.110
    20   6 C        3.755    -0.117    22.798     6.808
    21   6 C        3.755    -0.116    22.780     6.805
    22   6 C        3.860     0.129    18.456     6.110
    23   6 C        3.755    -0.116    22.785     6.806
    24   6 C        3.755    -0.118    22.807     6.810
    25   8 O        1.638    -0.370    20.278     6.079
    26   6 C        2.897    -0.025    28.638     8.774
    27   6 C        3.860    -0.012    20.750     6.478
    28   1 H        0.924     0.047     2.361     2.403
    29   6 C        2.961    -0.027    28.678     8.784
    30   6 C        2.888    -0.039    28.957     8.822
    31   6 C        3.079    -0.023    28.485     8.750
    32   1 H        0.926     0.030     2.585     2.514
    33   1 H        0.925     0.054     2.275     2.359
    34   1 H        0.925     0.039     2.464     2.455
    35   1 H        0.925     0.051     2.311     2.377
    36   1 H        0.925     0.051     2.302     2.373
    37   1 H        0.925     0.043     2.403     2.424
    38   1 H        0.925     0.042     2.427     2.436
    39   1 H        0.925     0.039     2.461     2.453
    40   1 H        0.925     0.052     2.297     2.370
    41   1 H        0.925     0.054     2.275     2.359
    42   1 H        0.925     0.042     2.425     2.435
    43   1 H        0.925     0.051     2.305     2.374
    44   1 H        0.925     0.042     2.419     2.432
    45   1 H        0.925     0.035     2.518     2.482
    46   1 H        0.925     0.054     2.271     2.357
    47   1 H        0.925     0.040     2.454     2.450
    48   1 H        0.925     0.052     2.296     2.369
    49   1 H        0.925     0.052     2.297     2.370
    50   1 H        0.925     0.044     2.399     2.422
    51   1 H        0.925     0.042     2.418     2.432
    52   1 H        0.925     0.043     2.414     2.430
    53   1 H        0.925     0.053     2.288     2.366
    54   1 H        0.925     0.044     2.399     2.422
    55   1 H        0.925     0.040     2.451     2.448
    56   1 H        0.925     0.052     2.292     2.368
    57   1 H        0.925     0.055     2.263     2.352
    58   1 H        0.925     0.037     2.484     2.464
    59   1 H        0.926     0.032     2.553     2.499
    60   1 H        0.925     0.025     2.660     2.551

Wiberg/Mayer (AO) data.
largest (>0.10) Wiberg bond orders for each atom

     #   Z sym  total        # sym  WBO       # sym  WBO       # sym  WBO
 ---------------------------------------------------------------------------
     1   6 C    3.994 --     2 C    0.996    34 H    0.985    33 H    0.983
                            35 H    0.982
     2   6 C    3.944 --     1 C    0.996     4 C    0.990     3 O    0.955
                             5 C    0.936
     3   8 O    2.220 --     9 B    1.115     2 C    0.955
     4   6 C    3.994 --     2 C    0.990    38 H    0.984    37 H    0.984
                            36 H    0.983
     5   6 C    3.943 --     6 C    0.996     7 C    0.990     8 O    0.955
                             2 C    0.936
     6   6 C    3.994 --     5 C    0.996    39 H    0.985    41 H    0.983
                            40 H    0.982
     7   6 C    3.994 --     5 C    0.990    42 H    0.985    44 H    0.984
                            43 H    0.983
     8   8 O    2.221 --     9 B    1.117     5 C    0.955
     9   5 B    3.385 --     8 O    1.117     3 O    1.115    10 C    1.025
    10   6 C    3.946 --    11 C    1.458     9 B    1.025    27 C    0.944
                            29 C    0.239    31 C    0.151
    11   6 C    3.991 --    12 C    1.463    10 C    1.458    45 H    0.961
    12   6 C    3.953 --    11 C    1.463    13 H    0.972    14 C    0.961
                            31 C    0.330    29 C    0.146
    13   1 H    0.999 --    12 C    0.972
    14   6 C    3.990 --    16 C    0.999    31 C    0.973    15 H    0.968
                            12 C    0.961
    15   1 H    0.997 --    14 C    0.968
    16   6 C    3.977 --    26 C    1.853    17 B    0.999    14 C    0.999
    17   5 B    3.376 --    25 O    1.133    18 O    1.127    16 C    0.999
    18   8 O    2.233 --    17 B    1.127    19 C    0.953
    19   6 C    3.943 --    20 C    0.997    21 C    0.991    18 O    0.953
                            22 C    0.937
    20   6 C    3.994 --    19 C    0.997    47 H    0.984    46 H    0.983
                            48 H    0.982
    21   6 C    3.994 --    19 C    0.991    51 H    0.984    50 H    0.984
                            49 H    0.983
    22   6 C    3.942 --    24 C    0.996    23 C    0.991    25 O    0.953
                            19 C    0.937
    23   6 C    3.995 --    22 C    0.991    52 H    0.984    54 H    0.984
                            53 H    0.983
    24   6 C    3.994 --    22 C    0.996    55 H    0.985    57 H    0.983
                            56 H    0.982
    25   8 O    2.237 --    17 B    1.133    22 C    0.953
    26   6 C    3.987 --    16 C    1.853    27 C    1.013    58 H    0.967
    27   6 C    3.992 --    26 C    1.013    29 C    0.979    28 H    0.970
                            10 C    0.944
    28   1 H    0.998 --    27 C    0.970
    29   6 C    3.960 --    30 C    1.521    27 C    0.979    59 H    0.972
                            10 C    0.239    12 C    0.146
    30   6 C    3.992 --    29 C    1.521    31 C    1.426    60 H    0.963
    31   6 C    3.939 --    30 C    1.426    32 H    0.973    14 C    0.973
                            12 C    0.330    10 C    0.151
    32   1 H    0.999 --    31 C    0.973
    33   1 H    0.997 --     1 C    0.983
    34   1 H    0.998 --     1 C    0.985
    35   1 H    0.997 --     1 C    0.982
    36   1 H    0.997 --     4 C    0.983
    37   1 H    0.998 --     4 C    0.984
    38   1 H    0.998 --     4 C    0.984
    39   1 H    0.998 --     6 C    0.985
    40   1 H    0.997 --     6 C    0.982
    41   1 H    0.997 --     6 C    0.983
    42   1 H    0.998 --     7 C    0.985
    43   1 H    0.997 --     7 C    0.983
    44   1 H    0.998 --     7 C    0.984
    45   1 H    0.999 --    11 C    0.961
    46   1 H    0.997 --    20 C    0.983
    47   1 H    0.998 --    20 C    0.984
    48   1 H    0.997 --    20 C    0.982
    49   1 H    0.997 --    21 C    0.983
    50   1 H    0.998 --    21 C    0.984
    51   1 H    0.998 --    21 C    0.984
    52   1 H    0.998 --    23 C    0.984
    53   1 H    0.997 --    23 C    0.983
    54   1 H    0.998 --    23 C    0.984
    55   1 H    0.998 --    24 C    0.985
    56   1 H    0.997 --    24 C    0.982
    57   1 H    0.997 --    24 C    0.983
    58   1 H    0.998 --    26 C    0.967
    59   1 H    0.999 --    29 C    0.972
    60   1 H    0.999 --    30 C    0.963
 ---------------------------------------------------------------------------

molecular dipole:
                 x           y           z       tot (Debye)
 q only:       -0.244      -0.296       0.182
   full:       -0.056      -0.342       0.048       0.890

           -------------------------------------------------
          | TOTAL ENERGY              -82.285519172338 Eh   |
          | GRADIENT NORM               0.000409375227 Eh/α |
          | HOMO-LUMO GAP               1.866083811843 eV   |
           -------------------------------------------------

 * finished run on 2022/07/09 at 18:33:18.205
