   * xtb version 6.5.0 (homebrew) compiled by 'nhattrup@GPGGRP-SHANNON.CHEME.CMU.EDU' on
          program call               : /opt/homebrew/bin/xtb bvl_bpin2_scan_6-0_xtb.xyz --chrg 0 --uhf 0 --opt --input xcontrol_bvl_bpin2_scan_6-0_xtb

   ID    Z sym.   atoms
    1    6 C      1, 2, 4-7, 10-12, 14, 16, 19-24, 26, 27, 29-31
    2    8 O      3, 8, 18, 25
    3    5 B      9, 17
    4    1 H      13, 15, 28, 32-60
constraining bond 12 31 to    2.1667000 Å, actual value:    2.0509568 Å
constraining bond 10 29 to    2.5000000 Å, actual value:    2.4973004 Å

          :  Hamiltonian                  GFN2-xTB          :
 * total energy  :   -82.1877750 Eh     change       -0.9474519E-09 Eh
 * total energy  :   -82.2477688 Eh     change       -0.5999382E-01 Eh
 * total energy  :   -82.2754727 Eh     change       -0.2770393E-01 Eh
 * total energy  :   -82.2757817 Eh     change       -0.3089515E-03 Eh
 * total energy  :   -82.2759980 Eh     change       -0.2163355E-03 Eh
 * total energy  :   -82.2747923 Eh     change        0.1205669E-02 Eh
 * total energy  :   -82.2760713 Eh     change       -0.1278977E-02 Eh
 * total energy  :   -82.2761042 Eh     change       -0.3291334E-04 Eh
 * total energy  :   -82.2761857 Eh     change       -0.8144897E-04 Eh
 * total energy  :   -82.2762124 Eh     change       -0.2677150E-04 Eh
 * total energy  :   -82.2762242 Eh     change       -0.1178344E-04 Eh
 * total energy  :   -82.2762338 Eh     change       -0.9594152E-05 Eh
 * total energy  :   -82.2762382 Eh     change       -0.4337127E-05 Eh
 * total energy  :   -82.2762448 Eh     change       -0.6651802E-05 Eh
 * total energy  :   -82.2762495 Eh     change       -0.4639225E-05 Eh
 * total energy  :   -82.2762592 Eh     change       -0.9777431E-05 Eh
 * total energy  :   -82.2762675 Eh     change       -0.8250010E-05 Eh
 * total energy  :   -82.2762736 Eh     change       -0.6104702E-05 Eh
 * total energy  :   -82.2762785 Eh     change       -0.4866154E-05 Eh
   *** GEOMETRY OPTIMIZATION CONVERGED AFTER 19 ITERATIONS ***

 final structure:
================
60
 xtb: 6.5.0 (homebrew)
C            3.28765593912487      -38.05767246187132       16.13774738192453
C            3.60484109428659      -38.24769748279823       17.61940535282068
O            3.24609050330148      -37.07243399379563       18.34262197403798
C            2.74342220997114      -39.39005084245836       18.17444944439428
C            5.12993920073899      -38.42017512938676       17.95602410651992
C            5.57886074310908      -39.85974132202941       18.19758900951431
C            6.04569701796838      -37.77693427087865       16.90640232607068
O            5.28190440737152      -37.67081608873534       19.15974333663723
B            4.20005270686078      -36.83939792609725       19.30120108715959
C            4.04351069356185      -35.82549699695234       20.45645344352292
C            5.07436434365225      -35.60180985812122       21.33500172721170
C            5.11117325302421      -34.78906067524085       22.46268044113479
H            6.06652329598403      -34.62461100149559       22.93865845960277
C            3.95690513070211      -34.00732523374248       23.05036284291560
H            4.16950285454100      -33.74240961697862       24.08689383041397
C            2.60472278487624      -34.65249817760094       22.98820421211326
B            1.82570888273233      -34.85067095977666       24.32363987233131
O            2.29153358046827      -34.46618670603889       25.55142824011860
C            1.40037136953009      -34.95482518031925       26.55340160914573
C            1.20378298321988      -33.88673346079325       27.62686152738201
C            2.06900342178813      -36.18364357229119       27.18283892802490
C            0.10785846977904      -35.31607725686748       25.73426479358402
C           -0.93052736399801      -34.18701475053444       25.72646124939374
C           -0.57318526904822      -36.61990388081725       26.14360505816954
O            0.59469891461723      -35.43776526825643       24.39912574667878
C            2.08314815085964      -35.07635201220849       21.83578053452419
C            2.74993548960332      -34.98335547330798       20.50004851952241
H            2.08276077812798      -35.40090849751081       19.74342205066814
C            3.07705972570556      -33.55341623854961       20.08460678963436
C            3.80038781859926      -32.67764248894738       20.82671161031698
C            4.23633132719911      -32.83704224118038       22.14540285164960
H            4.93584950595329      -32.11088390338574       22.53281941978682
H            2.21049916350717      -37.97372117861936       16.01568981027345
H            3.64004223830889      -38.91212287336086       15.56602746731624
H            3.74145876213434      -37.15096669465355       15.75100667401983
H            1.69609535450769      -39.12069633355794       18.05797838496636
H            2.93938046649669      -39.52367964021886       19.23547757230698
H            2.93075723821619      -40.31926584030904       17.64455932155464
H            5.38486289937928      -40.46948779260953       17.31926767098146
H            5.07178013135268      -40.28732872841488       19.05640671273967
H            6.64684267218141      -39.86477274582107       18.40115061537876
H            6.01692047614156      -38.32714285963614       15.97059418170755
H            7.06420613358647      -37.77990753748647       17.28797269021586
H            5.75413866971847      -36.74355444195071       16.73568302412893
H            5.98655236539352      -36.15387829619183       21.13263072203407
H            2.14760673824159      -33.72559768826479       28.14192229754404
H            0.46071663147696      -34.21359449470901       28.34922970278514
H            0.89388637752612      -32.94313290343730       27.18964115725682
H            3.03315219623299      -35.88411794832256       27.58740215551960
H            2.24453037521283      -36.94379042720816       26.42573791847778
H            1.46168757475882      -36.59415892480989       27.98390228654651
H           -1.38120397469405      -34.05919381577652       26.70598657905041
H           -1.70726121164761      -34.44033386500433       25.00863571967667
H           -0.47048703130785      -33.25548325885557       25.40644052139257
H           -0.87625633086631      -36.57699432901637       27.18611668006457
H            0.08438662388604      -37.46932429995730       25.99015648360067
H           -1.45589923175474      -36.76238814146605       25.52526683099141
H            1.10953487995679      -35.54661316154856       21.86357165498110
H            2.86183529950353      -33.30964136503308       19.05547656445621
H            4.07411054833934      -31.73555744479244       20.36203082310760

          :  Hamiltonian                  GFN2-xTB          :
         :: total energy             -82.276278452442 Eh    ::
         :: gradient norm              0.000911659495 Eh/a0 ::
         :: HOMO-LUMO gap              1.417211675584 eV    ::
         :: SCC energy               -83.347708164741 Eh    ::
         :: -> dispersion             -0.062074508291 Eh    ::
         :: repulsion energy           1.070439369283 Eh    ::

    * Orbital Energies and Occupations

         #    Occupation            Energy/Eh            Energy/eV
      -------------------------------------------------------------
         1        2.0000           -0.6869619             -18.6932
       ...           ...                  ...                  ...
        63        2.0000           -0.4363379             -11.8734
        64        2.0000           -0.4284695             -11.6592
        65        2.0000           -0.4229622             -11.5094
        66        2.0000           -0.4193945             -11.4123
        67        2.0000           -0.4181620             -11.3788
        68        2.0000           -0.4122073             -11.2167
        69        2.0000           -0.3998789             -10.8813
        70        2.0000           -0.3973618             -10.8128
        71        2.0000           -0.3965280             -10.7901
        72        2.0000           -0.3937226             -10.7137
        73        2.0000           -0.3918225             -10.6620
        74        2.0000           -0.3653135              -9.9407
        75        2.0000           -0.3259348              -8.8691 (HOMO)
        76                         -0.2738533              -7.4519 (LUMO)
        77                         -0.2177218              -5.9245
        78                         -0.1866368              -5.0786
        79                         -0.1456546              -3.9635
        80                         -0.0960421              -2.6134
        81                         -0.0843166              -2.2944
        82                          0.0100553               0.2736
        83                          0.0154349               0.4200
        84                          0.0292318               0.7954
        85                          0.0318656               0.8671
        86                          0.0575119               1.5650
       ...                                ...                  ...
       144                          0.6747864              18.3619
      -------------------------------------------------------------
                  HL-Gap            0.0520816 Eh            1.4172 eV

     #   Z          covCN         q      C6AA      α(0)
     1   6 C        3.755    -0.116    22.786     6.806
     2   6 C        3.860     0.130    18.444     6.108
     3   8 O        1.638    -0.376    20.392     6.096
     4   6 C        3.755    -0.116    22.768     6.804
     5   6 C        3.858     0.130    18.443     6.108
     6   6 C        3.755    -0.117    22.792     6.807
     7   6 C        3.755    -0.115    22.760     6.803
     8   8 O        1.638    -0.376    20.402     6.097
     9   5 B        2.659     0.429    15.596     6.649
    10   6 C        2.868    -0.088    30.207     9.009
    11   6 C        2.892    -0.032    28.787     8.797
    12   6 C        3.078    -0.026    28.556     8.761
    13   1 H        0.926     0.031     2.568     2.506
    14   6 C        3.862    -0.007    20.671     6.466
    15   1 H        0.924     0.049     2.327     2.385
    16   6 C        2.864    -0.085    30.132     8.998
    17   5 B        2.663     0.430    15.567     6.640
    18   8 O        1.638    -0.372    20.322     6.085
    19   6 C        3.860     0.129    18.458     6.110
    20   6 C        3.755    -0.117    22.799     6.808
    21   6 C        3.755    -0.116    22.780     6.805
    22   6 C        3.861     0.129    18.457     6.110
    23   6 C        3.755    -0.117    22.787     6.806
    24   6 C        3.755    -0.118    22.807     6.809
    25   8 O        1.638    -0.370    20.283     6.079
    26   6 C        2.900    -0.024    28.598     8.768
    27   6 C        3.857    -0.018    20.859     6.495
    28   1 H        0.924     0.048     2.348     2.396
    29   6 C        2.894    -0.033    28.833     8.804
    30   6 C        2.888    -0.034    28.848     8.806
    31   6 C        3.080    -0.022    28.458     8.746
    32   1 H        0.926     0.032     2.560     2.502
    33   1 H        0.925     0.053     2.277     2.360
    34   1 H        0.925     0.038     2.469     2.457
    35   1 H        0.925     0.051     2.307     2.375
    36   1 H        0.925     0.051     2.303     2.373
    37   1 H        0.925     0.043     2.408     2.427
    38   1 H        0.925     0.041     2.433     2.439
    39   1 H        0.925     0.039     2.466     2.456
    40   1 H        0.925     0.052     2.300     2.371
    41   1 H        0.925     0.053     2.280     2.361
    42   1 H        0.925     0.042     2.428     2.437
    43   1 H        0.925     0.051     2.311     2.377
    44   1 H        0.925     0.043     2.414     2.430
    45   1 H        0.925     0.037     2.485     2.465
    46   1 H        0.925     0.054     2.271     2.357
    47   1 H        0.925     0.040     2.452     2.449
    48   1 H        0.925     0.052     2.296     2.370
    49   1 H        0.925     0.052     2.298     2.370
    50   1 H        0.925     0.044     2.398     2.422
    51   1 H        0.925     0.042     2.417     2.431
    52   1 H        0.925     0.043     2.415     2.430
    53   1 H        0.925     0.053     2.287     2.365
    54   1 H        0.925     0.044     2.400     2.423
    55   1 H        0.925     0.040     2.452     2.449
    56   1 H        0.925     0.052     2.294     2.369
    57   1 H        0.925     0.055     2.262     2.352
    58   1 H        0.925     0.038     2.477     2.461
    59   1 H        0.926     0.030     2.587     2.515
    60   1 H        0.925     0.027     2.632     2.537

Wiberg/Mayer (AO) data.
largest (>0.10) Wiberg bond orders for each atom

     #   Z sym  total        # sym  WBO       # sym  WBO       # sym  WBO
 ---------------------------------------------------------------------------
     1   6 C    3.994 --     2 C    0.997    34 H    0.985    33 H    0.983
                            35 H    0.983
     2   6 C    3.944 --     1 C    0.997     4 C    0.990     3 O    0.956
                             5 C    0.937
     3   8 O    2.219 --     9 B    1.112     2 C    0.956
     4   6 C    3.994 --     2 C    0.990    38 H    0.985    37 H    0.984
                            36 H    0.983
     5   6 C    3.944 --     6 C    0.996     7 C    0.990     8 O    0.955
                             2 C    0.937
     6   6 C    3.994 --     5 C    0.996    39 H    0.985    41 H    0.983
                            40 H    0.982
     7   6 C    3.995 --     5 C    0.990    42 H    0.985    44 H    0.984
                            43 H    0.983
     8   8 O    2.219 --     9 B    1.114     5 C    0.955
     9   5 B    3.385 --     8 O    1.114     3 O    1.112    10 C    1.030
    10   6 C    3.960 --    11 C    1.540     9 B    1.030    27 C    0.950
                            31 C    0.151    29 C    0.147
    11   6 C    3.991 --    10 C    1.540    12 C    1.386    45 H    0.958
    12   6 C    3.942 --    11 C    1.386    13 H    0.973    14 C    0.953
                            31 C    0.401    29 C    0.146
    13   1 H    0.999 --    12 C    0.973
    14   6 C    3.988 --    16 C    1.006    31 C    0.972    15 H    0.967
                            12 C    0.953
    15   1 H    0.997 --    14 C    0.967
    16   6 C    3.977 --    26 C    1.845    14 C    1.006    17 B    1.001
    17   5 B    3.377 --    25 O    1.132    18 O    1.127    16 C    1.001
    18   8 O    2.233 --    17 B    1.127    19 C    0.953
    19   6 C    3.943 --    20 C    0.997    21 C    0.991    18 O    0.953
                            22 C    0.936
    20   6 C    3.994 --    19 C    0.997    47 H    0.984    46 H    0.983
                            48 H    0.982
    21   6 C    3.994 --    19 C    0.991    51 H    0.984    50 H    0.984
                            49 H    0.983
    22   6 C    3.943 --    24 C    0.996    23 C    0.990    25 O    0.953
                            19 C    0.936
    23   6 C    3.995 --    22 C    0.990    52 H    0.985    54 H    0.984
                            53 H    0.983
    24   6 C    3.994 --    22 C    0.996    55 H    0.985    57 H    0.982
                            56 H    0.982
    25   8 O    2.237 --    17 B    1.132    22 C    0.953
    26   6 C    3.986 --    16 C    1.845    27 C    1.007    58 H    0.966
    27   6 C    3.993 --    26 C    1.007    29 C    0.982    28 H    0.971
                            10 C    0.950
    28   1 H    0.998 --    27 C    0.971
    29   6 C    3.973 --    30 C    1.621    27 C    0.982    59 H    0.972
                            10 C    0.147    12 C    0.146
    30   6 C    3.992 --    29 C    1.621    31 C    1.339    60 H    0.961
    31   6 C    3.925 --    30 C    1.339    32 H    0.974    14 C    0.972
                            12 C    0.401    10 C    0.151
    32   1 H    0.999 --    31 C    0.974
    33   1 H    0.997 --     1 C    0.983
    34   1 H    0.998 --     1 C    0.985
    35   1 H    0.997 --     1 C    0.983
    36   1 H    0.997 --     4 C    0.983
    37   1 H    0.998 --     4 C    0.984
    38   1 H    0.998 --     4 C    0.985
    39   1 H    0.998 --     6 C    0.985
    40   1 H    0.997 --     6 C    0.982
    41   1 H    0.997 --     6 C    0.983
    42   1 H    0.998 --     7 C    0.985
    43   1 H    0.997 --     7 C    0.983
    44   1 H    0.998 --     7 C    0.984
    45   1 H    0.998 --    11 C    0.958
    46   1 H    0.997 --    20 C    0.983
    47   1 H    0.998 --    20 C    0.984
    48   1 H    0.997 --    20 C    0.982
    49   1 H    0.997 --    21 C    0.983
    50   1 H    0.998 --    21 C    0.984
    51   1 H    0.998 --    21 C    0.984
    52   1 H    0.998 --    23 C    0.985
    53   1 H    0.997 --    23 C    0.983
    54   1 H    0.998 --    23 C    0.984
    55   1 H    0.998 --    24 C    0.985
    56   1 H    0.997 --    24 C    0.982
    57   1 H    0.997 --    24 C    0.982
    58   1 H    0.998 --    26 C    0.966
    59   1 H    0.999 --    29 C    0.972
    60   1 H    0.999 --    30 C    0.961
 ---------------------------------------------------------------------------

molecular dipole:
                 x           y           z       tot (Debye)
 q only:       -0.281      -0.383       0.301
   full:       -0.116      -0.458       0.199       1.304

           -------------------------------------------------
          | TOTAL ENERGY              -82.276278452442 Eh   |
          | GRADIENT NORM               0.000911659495 Eh/α |
          | HOMO-LUMO GAP               1.417211675584 eV   |
           -------------------------------------------------

 * finished run on 2022/07/09 at 18:33:07.148
