   * xtb version 6.5.0 (homebrew) compiled by 'nhattrup@GPGGRP-SHANNON.CHEME.CMU.EDU' on
          program call               : /opt/homebrew/bin/xtb bvl_bpin2_scan_1-2_xtb.xyz --chrg 0 --uhf 0 --opt --input xcontrol_bvl_bpin2_scan_1-2_xtb

   ID    Z sym.   atoms
    1    6 C      1, 2, 4-7, 10-12, 14, 16, 19-24, 26, 27, 29-31
    2    8 O      3, 8, 18, 25
    3    5 B      9, 17
    4    1 H      13, 15, 28, 32-60
constraining bond 12 31 to    1.6111000 Å, actual value:    1.5017155 Å
constraining bond 10 29 to    2.2778000 Å, actual value:    2.3901239 Å

          :  Hamiltonian                  GFN2-xTB          :
 * total energy  :   -82.1459616 Eh     change       -0.1661093E-08 Eh
 * total energy  :   -82.2650967 Eh     change       -0.1191350E+00 Eh
 * total energy  :   -82.3148007 Eh     change       -0.4970407E-01 Eh
 * total energy  :   -82.3154759 Eh     change       -0.6751682E-03 Eh
 * total energy  :   -82.3156970 Eh     change       -0.2210822E-03 Eh
 * total energy  :   -82.3105765 Eh     change        0.5120493E-02 Eh
 * total energy  :   -82.3163289 Eh     change       -0.5752453E-02 Eh
 * total energy  :   -82.3164938 Eh     change       -0.1648628E-03 Eh
 * total energy  :   -82.3166444 Eh     change       -0.1506050E-03 Eh
 * total energy  :   -82.3169698 Eh     change       -0.3254012E-03 Eh
 * total energy  :   -82.3176031 Eh     change       -0.1425718E-04 Eh
 * total energy  :   -82.3176163 Eh     change       -0.1318558E-04 Eh
 * total energy  :   -82.3176249 Eh     change       -0.8563659E-05 Eh
 * total energy  :   -82.3176345 Eh     change       -0.9619257E-05 Eh
 * total energy  :   -82.3176427 Eh     change       -0.8185069E-05 Eh
 * total energy  :   -82.3176521 Eh     change       -0.9387788E-05 Eh
 * total energy  :   -82.3176620 Eh     change       -0.9935792E-05 Eh
 * total energy  :   -82.3176691 Eh     change       -0.7070007E-05 Eh
 * total energy  :   -82.3176737 Eh     change       -0.4635096E-05 Eh
   *** GEOMETRY OPTIMIZATION CONVERGED AFTER 37 ITERATIONS ***

 final structure:
================
60
 xtb: 6.5.0 (homebrew)
C            3.29753322635269      -38.04014843178717       16.14103263739575
C            3.61008413439474      -38.25740835550006       17.61997050367416
O            3.20958904168393      -37.10941947930147       18.36522926520691
C            2.77842619858894      -39.43680891937878       18.14050528239664
C            5.13920642146132      -38.38845092948406       17.96198071981954
C            5.62519466511296      -39.81588476817736       18.20367463024148
C            6.04394842403201      -37.72064115599135       16.91850945739131
O            5.26805998982072      -37.63306665121164       19.16581717185199
B            4.16144687247219      -36.84172825729229       19.31104159851288
C            3.99513119483216      -35.77065585925165       20.42987721925907
C            5.01763175211964      -35.53818923795738       21.27645714744450
C            5.09618333590674      -34.55289209243058       22.33268032216622
H            6.03646856464230      -34.53524389780632       22.86780034561657
C            3.90485348690649      -34.01471422251085       23.09574485199592
H            4.13385955082934      -33.72272031295332       24.11483085923641
C            2.56507389572264      -34.63581762179989       23.00176010539347
B            1.77728865104144      -34.82159098185224       24.33786801184686
O            2.26163632674136      -34.45587881727164       25.56419230228548
C            1.38173723201579      -34.95465933146503       26.57137961857672
C            1.21644544043999      -33.90756873869544       27.67017959517668
C            2.04841517258219      -36.20321627081699       27.16315785825206
C            0.07283540918721      -35.28561583547641       25.76652365311256
C           -0.94909981218543      -34.14207567413085       25.79354601173898
C           -0.61988585900373      -36.58551372453227       26.16942438496242
O            0.53971296298140      -35.39367472861850       24.42194436489204
C            2.04130432180115      -35.07369916562131       21.85293237477333
C            2.68504239879737      -35.03208918206288       20.50415417052364
H            2.00155025542502      -35.45790416072970       19.76850682603668
C            3.14465049127325      -33.69103812576373       20.04455029222254
C            3.90770468106071      -32.84746047536886       20.74152741190089
C            4.48004707413404      -33.09387801196168       22.05322499618371
H            5.09067766471957      -32.28729216179099       22.43804354600645
H            2.21928605411651      -37.98389944713298       16.01333160786901
H            3.67855581027710      -38.86910808388276       15.55074520282727
H            3.72740914155482      -37.11087478666985       15.78153488264466
H            1.72475158561001      -39.19698096657140       18.01673997235478
H            2.96516414844536      -39.58882097030526       19.20063804032719
H            3.00066097266368      -40.34731124421832       17.59216894421045
H            5.46017634367329      -40.42457976920178       17.31874693421712
H            5.11943343861647      -40.26405802692605       19.05261259109890
H            6.69010779164974      -39.79207899650956       18.42126130534506
H            6.02848720060957      -38.26395532347968       15.97851117412455
H            7.06113739162870      -37.70673918321849       17.30322795897901
H            5.73346571664697      -36.69163991240885       16.75569734127322
H            5.92620871130996      -36.10336890036993       21.10856363582901
H            2.17254816353233      -33.76573408516459       28.16796053373752
H            0.48591276280425      -34.24325318022111       28.40124896463967
H            0.90621608811581      -32.95232834622784       27.25946141983372
H            3.02372712091054      -35.92163967022817       27.55363637394806
H            2.20053437698167      -36.94988186537215       26.38776532080571
H            1.45299065897963      -36.62312593617925       27.96823614440380
H           -1.38237082151880      -34.02539351598266       26.78238804798286
H           -1.74085540869632      -34.37085988374959       25.08396564909908
H           -0.48001690006123      -33.21175465406778       25.48333805044183
H           -0.89843483368652      -36.55414343395366       27.21929412057461
H            0.02043155109774      -37.44274228973674       25.98865569571077
H           -1.51893489778688      -36.70508953116219       25.57003567117369
H            1.05952547398140      -35.52508091850813       21.89265055478620
H            2.84845227777650      -33.40649935529991       19.04311386112699
H            4.21640691488456      -31.91906214425759       20.27620246453718

          :  Hamiltonian                  GFN2-xTB          :
         :: total energy             -82.317673698148 Eh    ::
         :: gradient norm              0.000463355549 Eh/a0 ::
         :: HOMO-LUMO gap              3.399242675578 eV    ::
         :: SCC energy               -83.398575873024 Eh    ::
         :: -> dispersion             -0.061390029028 Eh    ::
         :: repulsion energy           1.080065849430 Eh    ::

    * Orbital Energies and Occupations

         #    Occupation            Energy/Eh            Energy/eV
      -------------------------------------------------------------
         1        2.0000           -0.6878951             -18.7186
       ...           ...                  ...                  ...
        63        2.0000           -0.4368976             -11.8886
        64        2.0000           -0.4335770             -11.7982
        65        2.0000           -0.4275848             -11.6352
        66        2.0000           -0.4195841             -11.4175
        67        2.0000           -0.4193166             -11.4102
        68        2.0000           -0.4128341             -11.2338
        69        2.0000           -0.4067203             -11.0674
        70        2.0000           -0.3978407             -10.8258
        71        2.0000           -0.3961207             -10.7790
        72        2.0000           -0.3957032             -10.7676
        73        2.0000           -0.3867198             -10.5232
        74        2.0000           -0.3532888              -9.6135
        75        2.0000           -0.3479557              -9.4684 (HOMO)
        76                         -0.2230358              -6.0691 (LUMO)
        77                         -0.2130197              -5.7966
        78                         -0.1885005              -5.1294
        79                         -0.1026773              -2.7940
        80                         -0.0936208              -2.5476
        81                         -0.0057737              -0.1571
        82                          0.0086671               0.2358
        83                          0.0111223               0.3027
        84                          0.0287194               0.7815
        85                          0.0300420               0.8175
        86                          0.0569968               1.5510
       ...                                ...                  ...
       144                          0.6837579              18.6060
      -------------------------------------------------------------
                  HL-Gap            0.1249199 Eh            3.3992 eV

     #   Z          covCN         q      C6AA      α(0)
     1   6 C        3.755    -0.117    22.793     6.807
     2   6 C        3.859     0.129    18.454     6.109
     3   8 O        1.638    -0.372    20.319     6.085
     4   6 C        3.755    -0.116    22.773     6.804
     5   6 C        3.859     0.129    18.450     6.109
     6   6 C        3.755    -0.117    22.801     6.809
     7   6 C        3.755    -0.116    22.774     6.805
     8   8 O        1.638    -0.374    20.363     6.091
     9   5 B        2.660     0.432    15.563     6.641
    10   6 C        2.932    -0.083    30.068     8.993
    11   6 C        2.895    -0.034    28.850     8.806
    12   6 C        3.847    -0.016    20.826     6.491
    13   1 H        0.925     0.031     2.572     2.508
    14   6 C        3.864    -0.015    20.793     6.485
    15   1 H        0.925     0.043     2.409     2.427
    16   6 C        2.863    -0.085    30.124     8.996
    17   5 B        2.662     0.432    15.549     6.637
    18   8 O        1.638    -0.374    20.352     6.090
    19   6 C        3.860     0.129    18.453     6.109
    20   6 C        3.755    -0.117    22.800     6.808
    21   6 C        3.755    -0.116    22.780     6.805
    22   6 C        3.860     0.129    18.455     6.109
    23   6 C        3.755    -0.116    22.785     6.806
    24   6 C        3.755    -0.118    22.806     6.809
    25   8 O        1.638    -0.370    20.291     6.080
    26   6 C        2.899    -0.027    28.684     8.781
    27   6 C        3.865    -0.015    20.793     6.484
    28   1 H        0.924     0.045     2.387     2.416
    29   6 C        2.959    -0.031    28.766     8.797
    30   6 C        2.889    -0.043    29.054     8.837
    31   6 C        3.849    -0.014    20.787     6.485
    32   1 H        0.925     0.031     2.577     2.510
    33   1 H        0.925     0.054     2.270     2.356
    34   1 H        0.925     0.039     2.460     2.453
    35   1 H        0.925     0.052     2.301     2.372
    36   1 H        0.925     0.052     2.295     2.369
    37   1 H        0.925     0.043     2.405     2.425
    38   1 H        0.925     0.042     2.424     2.435
    39   1 H        0.925     0.040     2.454     2.450
    40   1 H        0.925     0.052     2.298     2.371
    41   1 H        0.925     0.054     2.270     2.356
    42   1 H        0.925     0.042     2.418     2.432
    43   1 H        0.925     0.052     2.298     2.371
    44   1 H        0.925     0.043     2.404     2.425
    45   1 H        0.925     0.035     2.514     2.480
    46   1 H        0.925     0.054     2.268     2.355
    47   1 H        0.925     0.040     2.451     2.448
    48   1 H        0.925     0.052     2.294     2.368
    49   1 H        0.925     0.052     2.295     2.369
    50   1 H        0.925     0.044     2.400     2.423
    51   1 H        0.925     0.043     2.415     2.430
    52   1 H        0.925     0.043     2.412     2.429
    53   1 H        0.925     0.053     2.286     2.364
    54   1 H        0.925     0.044     2.398     2.422
    55   1 H        0.925     0.040     2.449     2.447
    56   1 H        0.925     0.052     2.293     2.368
    57   1 H        0.925     0.055     2.262     2.352
    58   1 H        0.925     0.037     2.495     2.470
    59   1 H        0.925     0.025     2.661     2.551
    60   1 H        0.925     0.023     2.688     2.564

Wiberg/Mayer (AO) data.
largest (>0.10) Wiberg bond orders for each atom

     #   Z sym  total        # sym  WBO       # sym  WBO       # sym  WBO
 ---------------------------------------------------------------------------
     1   6 C    3.994 --     2 C    0.997    34 H    0.985    33 H    0.983
                            35 H    0.982
     2   6 C    3.944 --     1 C    0.997     4 C    0.990     3 O    0.954
                             5 C    0.936
     3   8 O    2.231 --     9 B    1.125     2 C    0.954
     4   6 C    3.994 --     2 C    0.990    38 H    0.985    37 H    0.984
                            36 H    0.983
     5   6 C    3.942 --     6 C    0.996     7 C    0.991     8 O    0.953
                             2 C    0.936
     6   6 C    3.994 --     5 C    0.996    39 H    0.985    41 H    0.983
                            40 H    0.982
     7   6 C    3.995 --     5 C    0.991    42 H    0.984    44 H    0.984
                            43 H    0.983
     8   8 O    2.229 --     9 B    1.125     5 C    0.953
     9   5 B    3.378 --     3 O    1.125     8 O    1.125    10 C    1.006
    10   6 C    3.972 --    11 C    1.742     9 B    1.006    27 C    0.956
    11   6 C    3.989 --    10 C    1.742    12 C    1.132    45 H    0.964
    12   6 C    3.946 --    11 C    1.132    13 H    0.973    14 C    0.905
                            31 C    0.800
    13   1 H    0.999 --    12 C    0.973
    14   6 C    3.956 --    16 C    1.039    15 H    0.969    31 C    0.926
                            12 C    0.905
    15   1 H    0.998 --    14 C    0.969
    16   6 C    3.978 --    26 C    1.822    14 C    1.039    17 B    0.997
    17   5 B    3.375 --    25 O    1.133    18 O    1.127    16 C    0.997
    18   8 O    2.231 --    17 B    1.127    19 C    0.952
    19   6 C    3.943 --    20 C    0.997    21 C    0.991    18 O    0.952
                            22 C    0.937
    20   6 C    3.994 --    19 C    0.997    47 H    0.984    46 H    0.983
                            48 H    0.982
    21   6 C    3.994 --    19 C    0.991    51 H    0.984    50 H    0.984
                            49 H    0.983
    22   6 C    3.942 --    24 C    0.996    23 C    0.991    25 O    0.952
                            19 C    0.937
    23   6 C    3.995 --    22 C    0.991    52 H    0.984    54 H    0.984
                            53 H    0.983
    24   6 C    3.994 --    22 C    0.996    55 H    0.984    57 H    0.983
                            56 H    0.982
    25   8 O    2.236 --    17 B    1.133    22 C    0.952
    26   6 C    3.987 --    16 C    1.822    27 C    1.001    58 H    0.967
    27   6 C    3.994 --    26 C    1.001    29 C    0.980    28 H    0.970
                            10 C    0.956
    28   1 H    0.998 --    27 C    0.970
    29   6 C    3.986 --    30 C    1.818    27 C    0.980    59 H    0.969
    30   6 C    3.990 --    29 C    1.818    31 C    1.109    60 H    0.966
    31   6 C    3.941 --    30 C    1.109    32 H    0.974    14 C    0.926
                            12 C    0.800
    32   1 H    0.999 --    31 C    0.974
    33   1 H    0.997 --     1 C    0.983
    34   1 H    0.998 --     1 C    0.985
    35   1 H    0.997 --     1 C    0.982
    36   1 H    0.997 --     4 C    0.983
    37   1 H    0.998 --     4 C    0.984
    38   1 H    0.998 --     4 C    0.985
    39   1 H    0.998 --     6 C    0.985
    40   1 H    0.997 --     6 C    0.982
    41   1 H    0.997 --     6 C    0.983
    42   1 H    0.998 --     7 C    0.984
    43   1 H    0.997 --     7 C    0.983
    44   1 H    0.998 --     7 C    0.984
    45   1 H    0.999 --    11 C    0.964
    46   1 H    0.997 --    20 C    0.983
    47   1 H    0.998 --    20 C    0.984
    48   1 H    0.997 --    20 C    0.982
    49   1 H    0.997 --    21 C    0.983
    50   1 H    0.998 --    21 C    0.984
    51   1 H    0.998 --    21 C    0.984
    52   1 H    0.998 --    23 C    0.984
    53   1 H    0.997 --    23 C    0.983
    54   1 H    0.998 --    23 C    0.984
    55   1 H    0.998 --    24 C    0.984
    56   1 H    0.997 --    24 C    0.982
    57   1 H    0.997 --    24 C    0.983
    58   1 H    0.999 --    26 C    0.967
    59   1 H    0.999 --    29 C    0.969
    60   1 H    0.999 --    30 C    0.966
 ---------------------------------------------------------------------------

molecular dipole:
                 x           y           z       tot (Debye)
 q only:       -0.230      -0.525       0.234
   full:       -0.162      -0.637       0.236       1.775

           -------------------------------------------------
          | TOTAL ENERGY              -82.317673698148 Eh   |
          | GRADIENT NORM               0.000463355549 Eh/α |
          | HOMO-LUMO GAP               3.399242675578 eV   |
           -------------------------------------------------

 * finished run on 2022/07/09 at 18:32:58.813
