   * xtb version 6.5.0 (homebrew) compiled by 'nhattrup@GPGGRP-SHANNON.CHEME.CMU.EDU' on
          program call               : /opt/homebrew/bin/xtb bvl_bpin2_scan_4-6_xtb.xyz --chrg 0 --uhf 0 --opt --input xcontrol_bvl_bpin2_scan_4-6_xtb

   ID    Z sym.   atoms
    1    6 C      1, 2, 4-7, 10-12, 14, 16, 19-24, 26, 27, 29-31
    2    8 O      3, 8, 18, 25
    3    5 B      9, 17
    4    1 H      13, 15, 28, 32-60
constraining bond 12 31 to    1.9444000 Å, actual value:    1.8317445 Å
constraining bond 10 29 to    1.8333000 Å, actual value:    1.9451969 Å

          :  Hamiltonian                  GFN2-xTB          :
 * total energy  :   -82.1198109 Eh     change       -0.9841727E-09 Eh
 * total energy  :   -82.2577948 Eh     change       -0.1379839E+00 Eh
 * total energy  :   -82.2980272 Eh     change       -0.4023244E-01 Eh
 * total energy  :   -82.2988767 Eh     change       -0.8495259E-03 Eh
 * total energy  :   -82.2978856 Eh     change        0.9911125E-03 Eh
 * total energy  :   -82.2982742 Eh     change       -0.3886189E-03 Eh
 * total energy  :   -82.2995166 Eh     change       -0.1242335E-02 Eh
 * total energy  :   -82.2997164 Eh     change       -0.1998414E-03 Eh
 * total energy  :   -82.2997790 Eh     change       -0.6263298E-04 Eh
 * total energy  :   -82.2999078 Eh     change       -0.1287091E-03 Eh
 * total energy  :   -82.2999508 Eh     change       -0.1152889E-04 Eh
 * total energy  :   -82.2999594 Eh     change       -0.8578572E-05 Eh
 * total energy  :   -82.2999723 Eh     change       -0.1299717E-04 Eh
 * total energy  :   -82.2999784 Eh     change       -0.6064451E-05 Eh
 * total energy  :   -82.2999855 Eh     change       -0.7135481E-05 Eh
 * total energy  :   -82.2999926 Eh     change       -0.7076165E-05 Eh
 * total energy  :   -82.2999972 Eh     change       -0.4578106E-05 Eh
 * total energy  :   -82.3000019 Eh     change       -0.4669609E-05 Eh
 * total energy  :   -82.3000044 Eh     change       -0.2503967E-05 Eh
   *** GEOMETRY OPTIMIZATION CONVERGED AFTER 21 ITERATIONS ***

 final structure:
================
60
 xtb: 6.5.0 (homebrew)
C            3.46571305477990      -37.74103518704990       15.91674852446702
C            3.71889099023715      -38.14919308355257       17.36634734498438
O            3.24353533306067      -37.12504579859163       18.23972588520821
C            2.90861863588993      -39.41366875833809       17.67882187019454
C            5.23469321506167      -38.27976612297024       17.76341170366024
C            5.76097517805816      -39.71115816569749       17.83701511461290
C            6.16090535104665      -37.44784443956786       16.86752344831872
O            5.28125110335916      -37.69092756074475       19.06340178326593
B            4.14353013139327      -36.96132326893670       19.25862657635012
C            3.89050700624624      -36.05697015267418       20.50148571172035
C            4.92530746981610      -35.91705332497492       21.45154985487030
C            4.95889550628057      -35.06392097369399       22.52146292906210
H            5.89686053128589      -34.97350661487038       23.05410457485774
C            3.82214883728240      -34.27732444639375       23.08648859953962
H            4.05671229194231      -33.88035299281371       24.07254212024312
C            2.45351792007039      -34.88295022354660       23.12076149530110
B            1.70366164404848      -34.88870011619539       24.48805451719414
O            2.21229256990966      -34.36631035353705       25.64577473995744
C            1.34771242556525      -34.71666951207170       26.72572609214496
C            1.20274558029339      -33.52734763469197       27.67236401694805
C            2.01939906224472      -35.87519167665946       27.47420963678796
C            0.02383801293051      -35.14766381081345       25.99554813483038
C           -0.99606619933589      -34.00718136801436       25.88498820087820
C           -0.66352991583651      -36.37961823001523       26.58012385409448
O            0.46543134322484      -35.43754262887470       24.67014269996131
C            1.89012249102591      -35.44122326456243       22.04892724318123
C            2.47544767427135      -35.55607645324729       20.69898432953013
H            1.79140386143517      -36.04505215256739       20.01015861029282
C            3.19547196368579      -34.42404388714578       20.04793095692397
C            3.85420122742759      -33.36611760829915       20.68490781465659
C            4.22839536778502      -33.33677321018126       22.00439598235409
H            4.86097984670393      -32.51684086754813       22.32004972417089
H            2.39296310700826      -37.69811456391280       15.74501321088180
H            3.90093017087111      -38.47170361021833       15.24045172939752
H            3.87930427583377      -36.76022010617108       15.70559329564612
H            1.85344479831097      -39.19256067830667       17.53465025787888
H            3.05182739662692      -39.70574893269632       18.71608152663997
H            3.19037172107160      -40.23214557462579       17.02325916581451
H            5.65823206289091      -40.20101196476800       16.87252980569140
H            5.23431907266646      -40.28383669512643       18.59337787361746
H            6.81337290419774      -39.68452918721545       18.10823053889476
H            6.20968380899567      -37.85747128553846       15.86318999776704
H            7.15758462076898      -37.45504005125616       17.30266873755190
H            5.82006562672132      -36.41617814138406       16.82940409965487
H            5.85543933730357      -36.39626207644413       21.17262540960682
H            2.16576923040268      -33.32454736430577       28.13445667647330
H            0.48017266839146      -33.75476395377714       28.45151918324709
H            0.89152597979762      -32.63548548272781       27.13828948147361
H            3.00139942818390      -35.54794486817117       27.80827788805175
H            2.15738167567327      -36.72270016626243       26.80746663302966
H            1.43454619093809      -36.17669666211689       28.33798096074969
H           -1.41259437457975      -33.75539225296168       26.85563587489600
H           -1.79988519897716      -34.32776924165127       25.22628389337928
H           -0.53143046543559      -33.12933113913643       25.44307990428865
H           -0.92846855305604      -36.20683532569999       27.61966392042329
H           -0.02564449894573      -37.25450775081028       26.50796342116829
H           -1.57014752458391      -36.57715826143107       26.01363981348850
H            0.90310775068552      -35.86906511689669       22.16220747240287
H            3.06665158155820      -34.35569292002385       18.97766377632842
H            4.28023769549125      -32.60987273752172       20.03641136099351

          :  Hamiltonian                  GFN2-xTB          :
         :: total energy             -82.300004378118 Eh    ::
         :: gradient norm              0.000889809208 Eh/a0 ::
         :: HOMO-LUMO gap              3.082387533312 eV    ::
         :: SCC energy               -83.378843721757 Eh    ::
         :: -> dispersion             -0.061168190798 Eh    ::
         :: repulsion energy           1.078172338838 Eh    ::

    * Orbital Energies and Occupations

         #    Occupation            Energy/Eh            Energy/eV
      -------------------------------------------------------------
         1        2.0000           -0.6905068             -18.7896
       ...           ...                  ...                  ...
        63        2.0000           -0.4349135             -11.8346
        64        2.0000           -0.4334603             -11.7951
        65        2.0000           -0.4296171             -11.6905
        66        2.0000           -0.4223412             -11.4925
        67        2.0000           -0.4191375             -11.4053
        68        2.0000           -0.4149674             -11.2918
        69        2.0000           -0.4062780             -11.0554
        70        2.0000           -0.3993790             -10.8677
        71        2.0000           -0.3970159             -10.8034
        72        2.0000           -0.3948176             -10.7435
        73        2.0000           -0.3826762             -10.4131
        74        2.0000           -0.3560818              -9.6895
        75        2.0000           -0.3391018              -9.2274 (HOMO)
        76                         -0.2258262              -6.1450 (LUMO)
        77                         -0.2024283              -5.5084
        78                         -0.1807905              -4.9196
        79                         -0.1254543              -3.4138
        80                         -0.0964853              -2.6255
        81                         -0.0425280              -1.1572
        82                          0.0066133               0.1800
        83                          0.0100239               0.2728
        84                          0.0266191               0.7243
        85                          0.0295208               0.8033
        86                          0.0557338               1.5166
       ...                                ...                  ...
       144                          0.6938355              18.8802
      -------------------------------------------------------------
                  HL-Gap            0.1132757 Eh            3.0824 eV

     #   Z          covCN         q      C6AA      α(0)
     1   6 C        3.755    -0.117    22.795     6.808
     2   6 C        3.858     0.130    18.444     6.108
     3   8 O        1.638    -0.377    20.423     6.100
     4   6 C        3.755    -0.116    22.782     6.806
     5   6 C        3.859     0.129    18.448     6.108
     6   6 C        3.755    -0.118    22.810     6.810
     7   6 C        3.755    -0.116    22.772     6.804
     8   8 O        1.638    -0.372    20.323     6.085
     9   5 B        2.658     0.437    15.510     6.632
    10   6 C        3.661    -0.066    22.055     6.738
    11   6 C        2.891    -0.056    29.379     8.887
    12   6 C        3.491    -0.019    22.709     7.094
    13   1 H        0.925     0.027     2.631     2.537
    14   6 C        3.865    -0.015    20.801     6.486
    15   1 H        0.925     0.044     2.391     2.418
    16   6 C        2.864    -0.083    30.077     8.990
    17   5 B        2.662     0.432    15.555     6.638
    18   8 O        1.638    -0.372    20.319     6.085
    19   6 C        3.860     0.129    18.455     6.109
    20   6 C        3.755    -0.117    22.797     6.808
    21   6 C        3.755    -0.116    22.777     6.805
    22   6 C        3.860     0.129    18.455     6.109
    23   6 C        3.755    -0.116    22.783     6.806
    24   6 C        3.755    -0.117    22.804     6.809
    25   8 O        1.638    -0.371    20.306     6.083
    26   6 C        2.896    -0.026    28.661     8.778
    27   6 C        3.862    -0.012    20.744     6.477
    28   1 H        0.925     0.044     2.400     2.423
    29   6 C        3.689    -0.012    20.984     6.556
    30   6 C        2.888    -0.058    29.442     8.896
    31   6 C        3.493    -0.016    22.614     7.074
    32   1 H        0.925     0.027     2.623     2.533
    33   1 H        0.925     0.054     2.265     2.353
    34   1 H        0.925     0.040     2.449     2.447
    35   1 H        0.925     0.051     2.303     2.373
    36   1 H        0.925     0.052     2.292     2.367
    37   1 H        0.925     0.044     2.397     2.421
    38   1 H        0.925     0.043     2.413     2.429
    39   1 H        0.925     0.040     2.445     2.445
    40   1 H        0.925     0.053     2.289     2.366
    41   1 H        0.925     0.055     2.259     2.350
    42   1 H        0.925     0.043     2.410     2.428
    43   1 H        0.925     0.053     2.287     2.365
    44   1 H        0.925     0.043     2.407     2.426
    45   1 H        0.925     0.030     2.580     2.512
    46   1 H        0.925     0.054     2.270     2.356
    47   1 H        0.925     0.040     2.455     2.450
    48   1 H        0.925     0.052     2.296     2.369
    49   1 H        0.925     0.052     2.296     2.369
    50   1 H        0.925     0.044     2.399     2.422
    51   1 H        0.925     0.042     2.420     2.432
    52   1 H        0.925     0.042     2.416     2.431
    53   1 H        0.925     0.052     2.291     2.367
    54   1 H        0.925     0.044     2.398     2.422
    55   1 H        0.925     0.040     2.453     2.449
    56   1 H        0.925     0.052     2.294     2.369
    57   1 H        0.925     0.054     2.266     2.354
    58   1 H        0.925     0.038     2.474     2.460
    59   1 H        0.926     0.034     2.531     2.488
    60   1 H        0.925     0.020     2.740     2.589

Wiberg/Mayer (AO) data.
largest (>0.10) Wiberg bond orders for each atom

     #   Z sym  total        # sym  WBO       # sym  WBO       # sym  WBO
 ---------------------------------------------------------------------------
     1   6 C    3.994 --     2 C    0.997    34 H    0.984    33 H    0.983
                            35 H    0.982
     2   6 C    3.943 --     1 C    0.997     4 C    0.991     3 O    0.952
                             5 C    0.937
     3   8 O    2.223 --     9 B    1.122     2 C    0.952
     4   6 C    3.994 --     2 C    0.991    38 H    0.984    37 H    0.984
                            36 H    0.983
     5   6 C    3.942 --     6 C    0.997     7 C    0.991     8 O    0.951
                             2 C    0.937
     6   6 C    3.994 --     5 C    0.997    39 H    0.984    41 H    0.982
                            40 H    0.982
     7   6 C    3.994 --     5 C    0.991    42 H    0.984    44 H    0.984
                            43 H    0.983
     8   8 O    2.231 --     9 B    1.131     5 C    0.951
     9   5 B    3.381 --     8 O    1.131     3 O    1.122    10 C    1.007
    10   6 C    3.932 --    11 C    1.302     9 B    1.007    27 C    0.906
                            29 C    0.506
    11   6 C    3.986 --    12 C    1.538    10 C    1.302    45 H    0.963
    12   6 C    3.965 --    11 C    1.538    13 H    0.972    14 C    0.948
                            31 C    0.339
    13   1 H    0.999 --    12 C    0.972
    14   6 C    3.981 --    16 C    1.000    15 H    0.969    31 C    0.958
                            12 C    0.948
    15   1 H    0.998 --    14 C    0.969
    16   6 C    3.977 --    26 C    1.836    14 C    1.000    17 B    1.000
    17   5 B    3.376 --    25 O    1.130    18 O    1.127    16 C    1.000
    18   8 O    2.233 --    17 B    1.127    19 C    0.953
    19   6 C    3.943 --    20 C    0.997    21 C    0.991    18 O    0.953
                            22 C    0.936
    20   6 C    3.994 --    19 C    0.997    47 H    0.985    46 H    0.983
                            48 H    0.982
    21   6 C    3.994 --    19 C    0.991    51 H    0.984    50 H    0.984
                            49 H    0.983
    22   6 C    3.943 --    24 C    0.996    23 C    0.991    25 O    0.953
                            19 C    0.936
    23   6 C    3.995 --    22 C    0.991    52 H    0.985    54 H    0.984
                            53 H    0.983
    24   6 C    3.994 --    22 C    0.996    55 H    0.985    57 H    0.983
                            56 H    0.982
    25   8 O    2.234 --    17 B    1.130    22 C    0.953
    26   6 C    3.988 --    16 C    1.836    27 C    1.035    58 H    0.966
    27   6 C    3.974 --    26 C    1.035    28 H    0.968    29 C    0.949
                            10 C    0.906
    28   1 H    0.998 --    27 C    0.968
    29   6 C    3.949 --    30 C    1.334    59 H    0.973    27 C    0.949
                            10 C    0.506
    30   6 C    3.981 --    31 C    1.515    29 C    1.334    60 H    0.965
    31   6 C    3.957 --    30 C    1.515    32 H    0.972    14 C    0.958
                            12 C    0.339
    32   1 H    0.999 --    31 C    0.972
    33   1 H    0.997 --     1 C    0.983
    34   1 H    0.998 --     1 C    0.984
    35   1 H    0.997 --     1 C    0.982
    36   1 H    0.997 --     4 C    0.983
    37   1 H    0.998 --     4 C    0.984
    38   1 H    0.998 --     4 C    0.984
    39   1 H    0.998 --     6 C    0.984
    40   1 H    0.997 --     6 C    0.982
    41   1 H    0.997 --     6 C    0.982
    42   1 H    0.998 --     7 C    0.984
    43   1 H    0.997 --     7 C    0.983
    44   1 H    0.998 --     7 C    0.984
    45   1 H    0.999 --    11 C    0.963
    46   1 H    0.997 --    20 C    0.983
    47   1 H    0.998 --    20 C    0.985
    48   1 H    0.997 --    20 C    0.982
    49   1 H    0.997 --    21 C    0.983
    50   1 H    0.998 --    21 C    0.984
    51   1 H    0.998 --    21 C    0.984
    52   1 H    0.998 --    23 C    0.985
    53   1 H    0.997 --    23 C    0.983
    54   1 H    0.998 --    23 C    0.984
    55   1 H    0.998 --    24 C    0.985
    56   1 H    0.997 --    24 C    0.982
    57   1 H    0.997 --    24 C    0.983
    58   1 H    0.998 --    26 C    0.966
    59   1 H    0.998 --    29 C    0.973
    60   1 H    0.999 --    30 C    0.965
 ---------------------------------------------------------------------------

molecular dipole:
                 x           y           z       tot (Debye)
 q only:       -0.280      -0.464       0.018
   full:       -0.161      -0.533      -0.077       1.428

           -------------------------------------------------
          | TOTAL ENERGY              -82.300004378118 Eh   |
          | GRADIENT NORM               0.000889809208 Eh/α |
          | HOMO-LUMO GAP               3.082387533312 eV   |
           -------------------------------------------------

 * finished run on 2022/07/09 at 18:33:27.785
