   * xtb version 6.5.0 (homebrew) compiled by 'nhattrup@GPGGRP-SHANNON.CHEME.CMU.EDU' on
          program call               : /opt/homebrew/bin/xtb bvl_bpin2_scan_5-5_xtb.xyz --chrg 0 --uhf 0 --opt --input xcontrol_bvl_bpin2_scan_5-5_xtb

   ID    Z sym.   atoms
    1    6 C      1, 2, 4-7, 10-12, 14, 16, 19-24, 26, 27, 29-31
    2    8 O      3, 8, 18, 25
    3    5 B      9, 17
    4    1 H      13, 15, 28, 32-60
constraining bond 12 31 to    2.0556000 Å, actual value:    1.9425493 Å
constraining bond 10 29 to    1.9444000 Å, actual value:    2.0552952 Å

          :  Hamiltonian                  GFN2-xTB          :
 * total energy  :   -82.1185125 Eh     change       -0.1203887E-08 Eh
 * total energy  :   -82.2543813 Eh     change       -0.1358688E+00 Eh
 * total energy  :   -82.2957599 Eh     change       -0.4137858E-01 Eh
 * total energy  :   -82.2965754 Eh     change       -0.8155041E-03 Eh
 * total energy  :   -82.2964220 Eh     change        0.1533912E-03 Eh
 * total energy  :   -82.2947201 Eh     change        0.1701901E-02 Eh
 * total energy  :   -82.2974523 Eh     change       -0.2732127E-02 Eh
 * total energy  :   -82.2975691 Eh     change       -0.1168005E-03 Eh
 * total energy  :   -82.2977129 Eh     change       -0.1438094E-03 Eh
 * total energy  :   -82.2978288 Eh     change       -0.1159072E-03 Eh
 * total energy  :   -82.2979866 Eh     change       -0.1274094E-04 Eh
 * total energy  :   -82.2979955 Eh     change       -0.8903520E-05 Eh
 * total energy  :   -82.2980007 Eh     change       -0.5198165E-05 Eh
 * total energy  :   -82.2980051 Eh     change       -0.4425499E-05 Eh
 * total energy  :   -82.2980124 Eh     change       -0.7221023E-05 Eh
 * total energy  :   -82.2980158 Eh     change       -0.3471835E-05 Eh
 * total energy  :   -82.2980210 Eh     change       -0.5197925E-05 Eh
 * total energy  :   -82.2980260 Eh     change       -0.4977425E-05 Eh
 * total energy  :   -82.2980287 Eh     change       -0.2654588E-05 Eh
   *** GEOMETRY OPTIMIZATION CONVERGED AFTER 30 ITERATIONS ***

 final structure:
================
60
 xtb: 6.5.0 (homebrew)
C            3.48630441989057      -37.72084116614047       15.90901338045350
C            3.73426019578636      -38.14618998470926       17.35442405859362
O            3.26044103144159      -37.13147345024962       18.23829407023212
C            2.91768078803714      -39.41039671117687       17.65204317362531
C            5.24782988471342      -38.28819099070216       17.75430043615005
C            5.76933997115665      -39.72255328045531       17.79886035774413
C            6.17873508187600      -37.44226364855788       16.87637367728005
O            5.29040566167242      -37.72587370112854       19.06586408834334
B            4.15364992285162      -36.99382282405604       19.26872841103541
C            3.88770698557429      -36.12795172098476       20.52970568583039
C            4.91802430422502      -35.95648034723026       21.47259361090221
C            4.93755425071912      -35.13545166368348       22.56271916451582
H            5.87130270452554      -35.04014396672499       23.10081463444129
C            3.81017238633659      -34.29745183119640       23.07837729161668
H            4.03870700878105      -33.90087279872684       24.06711586153551
C            2.43793494411531      -34.90276148341538       23.11465921313398
B            1.68819202030165      -34.89785724554957       24.48250741213498
O            2.20919983904237      -34.36744359087432       25.63100501978627
C            1.35366081058946      -34.70467165183080       26.72165585541940
C            1.22624959867941      -33.50688411727760       27.66007805114377
C            2.02759719121993      -35.86086610990260       27.47167046111695
C            0.02059114220842      -35.13401537199638       26.00758358309412
C           -0.99355095791828      -33.98824587170533       25.89948296668361
C           -0.66824123099715      -36.35629413881537       26.61048103803231
O            0.44829962880888      -35.43711522860218       24.67986581027226
C            1.88415798389638      -35.46568842196484       22.04088244865986
C            2.48671116204686      -35.57481813851388       20.69354783111850
H            1.80470483056122      -36.06785013308470       20.00368020526533
C            3.14294375937903      -34.39985109256824       20.04841901484961
C            3.82188897990125      -33.36510252062867       20.69003934146176
C            4.16399563200804      -33.31164115944606       22.01401929841267
H            4.79717850298106      -32.49419449438109       22.33263705171074
H            2.41409927819093      -37.66232260456883       15.73863957921487
H            3.91168769770874      -38.45052670163790       15.22534866465013
H            3.91261937632318      -36.74360421283891       15.70699768091622
H            1.86381680221238      -39.18136640770766       17.51047874873413
H            3.05913622687503      -39.71403777747716       18.68630763053507
H            3.19497385375374      -40.22325535781107       16.98776500656572
H            5.65628347435303      -40.19409421619612       16.82641455137609
H            5.24615841859767      -40.30641764446416       18.54909902983012
H            6.82411564418256      -39.70561350018432       18.06151431262460
H            6.23043474241855      -37.83583590544585       15.86563652581122
H            7.17409193829107      -37.45802809898684       17.31437347079331
H            5.83923452187284      -36.40969720977021       16.85355083868639
H            5.84740816612026      -36.44614337831535       21.20750752735416
H            2.19594558551706      -33.30706174570818       28.10935841331423
H            0.51101846816922      -33.72251891756666       28.44923609218430
H            0.91556909062278      -32.61738974882712       27.12175394970146
H            3.01525992946898      -35.53567033205566       27.79077613802869
H            2.15345554516615      -36.71427975611175       26.81007598574531
H            1.45192682624671      -36.15235924469614       28.34495895589369
H           -1.39630635698848      -33.72665048695300       26.87340712811346
H           -1.80770853069254      -34.30819027243298       25.25333926395058
H           -0.52861432793073      -33.11666420323916       25.44567784179296
H           -0.92138508382262      -36.17098243613256       27.65087416882822
H           -0.03657215284260      -37.23588700050646       26.54121819902326
H           -1.58195180054217      -36.55407215609929       26.05558883543541
H            0.89826827664437      -35.89815745631408       22.14632420475084
H            3.03639231605774      -34.34647243751760       18.97539004227462
H            4.23073363961579      -32.59440193415296       20.04667470927625

          :  Hamiltonian                  GFN2-xTB          :
         :: total energy             -82.298028657737 Eh    ::
         :: gradient norm              0.000891221018 Eh/a0 ::
         :: HOMO-LUMO gap              3.157593034977 eV    ::
         :: SCC energy               -83.377789969259 Eh    ::
         :: -> dispersion             -0.061985342982 Eh    ::
         :: repulsion energy           1.079062100318 Eh    ::

    * Orbital Energies and Occupations

         #    Occupation            Energy/Eh            Energy/eV
      -------------------------------------------------------------
         1        2.0000           -0.6891916             -18.7539
       ...           ...                  ...                  ...
        63        2.0000           -0.4335914             -11.7986
        64        2.0000           -0.4331013             -11.7853
        65        2.0000           -0.4269420             -11.6177
        66        2.0000           -0.4219411             -11.4816
        67        2.0000           -0.4191995             -11.4070
        68        2.0000           -0.4156456             -11.3103
        69        2.0000           -0.4046994             -11.0124
        70        2.0000           -0.3982343             -10.8365
        71        2.0000           -0.3969299             -10.8010
        72        2.0000           -0.3939206             -10.7191
        73        2.0000           -0.3858402             -10.4992
        74        2.0000           -0.3497460              -9.5171
        75        2.0000           -0.3467283              -9.4350 (HOMO)
        76                         -0.2306888              -6.2774 (LUMO)
        77                         -0.2121376              -5.7726
        78                         -0.1881923              -5.1210
        79                         -0.1309340              -3.5629
        80                         -0.0968850              -2.6364
        81                         -0.0633873              -1.7249
        82                          0.0087337               0.2377
        83                          0.0098334               0.2676
        84                          0.0277839               0.7560
        85                          0.0293783               0.7994
        86                          0.0568131               1.5460
       ...                                ...                  ...
       144                          0.6904187              18.7872
      -------------------------------------------------------------
                  HL-Gap            0.1160394 Eh            3.1576 eV

     #   Z          covCN         q      C6AA      α(0)
     1   6 C        3.755    -0.117    22.792     6.807
     2   6 C        3.859     0.130    18.441     6.107
     3   8 O        1.638    -0.378    20.442     6.103
     4   6 C        3.755    -0.116    22.778     6.805
     5   6 C        3.859     0.130    18.445     6.108
     6   6 C        3.755    -0.117    22.805     6.809
     7   6 C        3.755    -0.115    22.766     6.803
     8   8 O        1.638    -0.373    20.347     6.089
     9   5 B        2.659     0.435    15.534     6.636
    10   6 C        3.471    -0.071    24.073     7.358
    11   6 C        2.891    -0.049    29.212     8.861
    12   6 C        3.265    -0.025    27.366     8.444
    13   1 H        0.925     0.027     2.636     2.539
    14   6 C        3.865    -0.013    20.774     6.481
    15   1 H        0.925     0.046     2.374     2.410
    16   6 C        2.864    -0.082    30.057     8.987
    17   5 B        2.662     0.432    15.557     6.639
    18   8 O        1.638    -0.371    20.313     6.084
    19   6 C        3.860     0.129    18.455     6.109
    20   6 C        3.755    -0.117    22.798     6.808
    21   6 C        3.755    -0.116    22.778     6.805
    22   6 C        3.860     0.129    18.455     6.109
    23   6 C        3.755    -0.116    22.784     6.806
    24   6 C        3.755    -0.117    22.805     6.809
    25   8 O        1.638    -0.370    20.294     6.081
    26   6 C        2.896    -0.027    28.666     8.778
    27   6 C        3.862    -0.009    20.702     6.470
    28   1 H        0.925     0.045     2.379     2.412
    29   6 C        3.499    -0.016    22.520     7.045
    30   6 C        2.888    -0.050    29.244     8.866
    31   6 C        3.267    -0.021    27.247     8.423
    32   1 H        0.925     0.028     2.622     2.532
    33   1 H        0.925     0.054     2.268     2.355
    34   1 H        0.925     0.040     2.455     2.450
    35   1 H        0.925     0.051     2.306     2.375
    36   1 H        0.925     0.052     2.296     2.370
    37   1 H        0.925     0.044     2.401     2.423
    38   1 H        0.925     0.042     2.419     2.432
    39   1 H        0.925     0.040     2.450     2.448
    40   1 H        0.925     0.052     2.290     2.367
    41   1 H        0.925     0.054     2.265     2.354
    42   1 H        0.925     0.043     2.414     2.430
    43   1 H        0.925     0.052     2.293     2.368
    44   1 H        0.925     0.043     2.412     2.429
    45   1 H        0.925     0.032     2.559     2.502
    46   1 H        0.925     0.054     2.269     2.356
    47   1 H        0.925     0.040     2.455     2.450
    48   1 H        0.925     0.052     2.296     2.369
    49   1 H        0.925     0.052     2.295     2.369
    50   1 H        0.925     0.044     2.399     2.422
    51   1 H        0.925     0.042     2.419     2.432
    52   1 H        0.925     0.043     2.414     2.430
    53   1 H        0.925     0.052     2.290     2.367
    54   1 H        0.925     0.044     2.398     2.421
    55   1 H        0.925     0.040     2.451     2.448
    56   1 H        0.925     0.052     2.293     2.368
    57   1 H        0.925     0.054     2.265     2.354
    58   1 H        0.925     0.038     2.479     2.462
    59   1 H        0.926     0.034     2.526     2.485
    60   1 H        0.925     0.022     2.707     2.573

Wiberg/Mayer (AO) data.
largest (>0.10) Wiberg bond orders for each atom

     #   Z sym  total        # sym  WBO       # sym  WBO       # sym  WBO
 ---------------------------------------------------------------------------
     1   6 C    3.994 --     2 C    0.997    34 H    0.985    33 H    0.983
                            35 H    0.982
     2   6 C    3.943 --     1 C    0.997     4 C    0.991     3 O    0.953
                             5 C    0.937
     3   8 O    2.220 --     9 B    1.117     2 C    0.953
     4   6 C    3.994 --     2 C    0.991    38 H    0.984    37 H    0.984
                            36 H    0.983
     5   6 C    3.942 --     6 C    0.997     7 C    0.991     8 O    0.952
                             2 C    0.937
     6   6 C    3.994 --     5 C    0.997    39 H    0.984    41 H    0.983
                            40 H    0.982
     7   6 C    3.994 --     5 C    0.991    42 H    0.984    44 H    0.984
                            43 H    0.983
     8   8 O    2.228 --     9 B    1.126     5 C    0.952
     9   5 B    3.383 --     8 O    1.126     3 O    1.117    10 C    1.016
    10   6 C    3.932 --    11 C    1.322     9 B    1.016    27 C    0.918
                            29 C    0.440    31 C    0.114
    11   6 C    3.989 --    12 C    1.564    10 C    1.322    45 H    0.962
    12   6 C    3.967 --    11 C    1.564    13 H    0.971    14 C    0.958
                            31 C    0.281    29 C    0.109
    13   1 H    0.999 --    12 C    0.971
    14   6 C    3.987 --    16 C    0.997    15 H    0.969    31 C    0.968
                            12 C    0.958
    15   1 H    0.998 --    14 C    0.969
    16   6 C    3.977 --    26 C    1.843    17 B    0.999    14 C    0.997
    17   5 B    3.376 --    25 O    1.132    18 O    1.128    16 C    0.999
    18   8 O    2.233 --    17 B    1.128    19 C    0.953
    19   6 C    3.943 --    20 C    0.997    21 C    0.991    18 O    0.953
                            22 C    0.936
    20   6 C    3.994 --    19 C    0.997    47 H    0.985    46 H    0.983
                            48 H    0.982
    21   6 C    3.994 --    19 C    0.991    51 H    0.984    50 H    0.984
                            49 H    0.983
    22   6 C    3.942 --    24 C    0.996    23 C    0.991    25 O    0.953
                            19 C    0.936
    23   6 C    3.995 --    22 C    0.991    52 H    0.984    54 H    0.984
                            53 H    0.983
    24   6 C    3.994 --    22 C    0.996    55 H    0.985    57 H    0.983
                            56 H    0.982
    25   8 O    2.235 --    17 B    1.132    22 C    0.953
    26   6 C    3.988 --    16 C    1.843    27 C    1.029    58 H    0.966
    27   6 C    3.982 --    26 C    1.029    28 H    0.968    29 C    0.960
                            10 C    0.918
    28   1 H    0.998 --    27 C    0.968
    29   6 C    3.949 --    30 C    1.363    59 H    0.973    27 C    0.960
                            10 C    0.440    12 C    0.109
    30   6 C    3.987 --    31 C    1.537    29 C    1.363    60 H    0.964
    31   6 C    3.957 --    30 C    1.537    32 H    0.972    14 C    0.968
                            12 C    0.281    10 C    0.114
    32   1 H    0.999 --    31 C    0.972
    33   1 H    0.997 --     1 C    0.983
    34   1 H    0.998 --     1 C    0.985
    35   1 H    0.997 --     1 C    0.982
    36   1 H    0.997 --     4 C    0.983
    37   1 H    0.998 --     4 C    0.984
    38   1 H    0.998 --     4 C    0.984
    39   1 H    0.998 --     6 C    0.984
    40   1 H    0.997 --     6 C    0.982
    41   1 H    0.997 --     6 C    0.983
    42   1 H    0.998 --     7 C    0.984
    43   1 H    0.997 --     7 C    0.983
    44   1 H    0.998 --     7 C    0.984
    45   1 H    0.999 --    11 C    0.962
    46   1 H    0.997 --    20 C    0.983
    47   1 H    0.998 --    20 C    0.985
    48   1 H    0.997 --    20 C    0.982
    49   1 H    0.997 --    21 C    0.983
    50   1 H    0.998 --    21 C    0.984
    51   1 H    0.998 --    21 C    0.984
    52   1 H    0.998 --    23 C    0.984
    53   1 H    0.997 --    23 C    0.983
    54   1 H    0.998 --    23 C    0.984
    55   1 H    0.998 --    24 C    0.985
    56   1 H    0.997 --    24 C    0.982
    57   1 H    0.997 --    24 C    0.983
    58   1 H    0.998 --    26 C    0.966
    59   1 H    0.998 --    29 C    0.973
    60   1 H    0.999 --    30 C    0.964
 ---------------------------------------------------------------------------

molecular dipole:
                 x           y           z       tot (Debye)
 q only:       -0.294      -0.396       0.058
   full:       -0.158      -0.458      -0.056       1.239

           -------------------------------------------------
          | TOTAL ENERGY              -82.298028657737 Eh   |
          | GRADIENT NORM               0.000891221018 Eh/α |
          | HOMO-LUMO GAP               3.157593034977 eV   |
           -------------------------------------------------

 * finished run on 2022/07/09 at 18:33:27.597
