   * xtb version 6.5.0 (homebrew) compiled by 'nhattrup@GPGGRP-SHANNON.CHEME.CMU.EDU' on
          program call               : /opt/homebrew/bin/xtb bvl_bpin2_scan_3-4_xtb.xyz --chrg 0 --uhf 0 --opt --input xcontrol_bvl_bpin2_scan_3-4_xtb

   ID    Z sym.   atoms
    1    6 C      1, 2, 4-7, 10-12, 14, 16, 19-24, 26, 27, 29-31
    2    8 O      3, 8, 18, 25
    3    5 B      9, 17
    4    1 H      13, 15, 28, 32-60
constraining bond 12 31 to    1.8333000 Å, actual value:    1.7181717 Å
constraining bond 10 29 to    2.0556000 Å, actual value:    2.1683507 Å

          :  Hamiltonian                  GFN2-xTB          :
 * total energy  :   -82.1238623 Eh     change       -0.1042395E-08 Eh
 * total energy  :   -82.2558244 Eh     change       -0.1319621E+00 Eh
 * total energy  :   -82.2988100 Eh     change       -0.4298558E-01 Eh
 * total energy  :   -82.2995656 Eh     change       -0.7555697E-03 Eh
 * total energy  :   -82.2960760 Eh     change        0.3489567E-02 Eh
 * total energy  :   -82.3000722 Eh     change       -0.3996218E-02 Eh
 * total energy  :   -82.3002757 Eh     change       -0.2034582E-03 Eh
 * total energy  :   -82.3004950 Eh     change       -0.2193691E-03 Eh
 * total energy  :   -82.3006320 Eh     change       -0.1369438E-03 Eh
 * total energy  :   -82.3008228 Eh     change       -0.1907607E-03 Eh
 * total energy  :   -82.3013830 Eh     change       -0.1440112E-04 Eh
 * total energy  :   -82.3013926 Eh     change       -0.9557521E-05 Eh
 * total energy  :   -82.3014007 Eh     change       -0.8139968E-05 Eh
 * total energy  :   -82.3014100 Eh     change       -0.9257095E-05 Eh
 * total energy  :   -82.3014206 Eh     change       -0.1069152E-04 Eh
 * total energy  :   -82.3014304 Eh     change       -0.9747919E-05 Eh
 * total energy  :   -82.3014377 Eh     change       -0.7327756E-05 Eh
 * total energy  :   -82.3014433 Eh     change       -0.5541473E-05 Eh
 * total energy  :   -82.3014446 Eh     change       -0.1338114E-05 Eh
   *** GEOMETRY OPTIMIZATION CONVERGED AFTER 44 ITERATIONS ***

 final structure:
================
60
 xtb: 6.5.0 (homebrew)
C            3.46772590928766      -37.74711752881204       15.94019592492687
C            3.71304460770621      -38.17174283950315       17.38655706525268
O            3.24409344495301      -37.15239447909235       18.26702973167612
C            2.88924593548610      -39.43084257638134       17.68559213973213
C            5.22676272995463      -38.32054131803852       17.78613506122104
C            5.73620994355895      -39.75872041452055       17.85223379216474
C            6.16508946251853      -37.49737820186806       16.89430464027168
O            5.27801335141626      -37.73852783104874       19.08816921578880
B            4.14425363207523      -36.99992316156594       19.28748643872465
C            3.90074977433170      -36.09397101587892       20.52811511987214
C            4.93224083317557      -35.87956305899525       21.40956948083634
C            4.97946158629913      -34.96707403839165       22.47535125989905
H            5.92772717266904      -34.85879388035421       22.98284339804182
C            3.82131389538209      -34.25172416687472       23.10814458125207
H            4.05908339354294      -33.87348208923063       24.09926908463252
C            2.46079538100984      -34.86114234747920       23.11185730601711
B            1.69956529841258      -34.88826530229568       24.47398572499969
O            2.20806621142376      -34.37341091672755       25.63527336820849
C            1.34670109731504      -34.73457091346397       26.71396691695864
C            1.19943676583659      -33.55120044684765       27.66772216451089
C            2.02582157299102      -35.89431338648124       27.45368192628633
C            0.02356746486871      -35.16661793930307       25.98284642110354
C           -1.00384476788840      -34.03158613176620       25.88755906792609
C           -0.65517543838674      -36.40712695270661       26.55948804954883
O            0.46354755706292      -35.44156794526938       24.65295559498393
C            1.91781331984870      -35.39915927749589       22.01947572123107
C            2.53186139692854      -35.47844170043412       20.66830799191916
H            1.84236466334147      -35.95898692110567       19.97525488046723
C            3.11508432177597      -34.25380149233304       20.05274995605107
C            3.83959732180385      -33.29240670741775       20.68587178246654
C            4.28703379930705      -33.33474597721020       22.02097330597872
H            4.94772564436022      -32.53943447851285       22.33678732078860
H            2.39587862837679      -37.68301509502183       15.76947017459609
H            3.88945956780055      -38.47933699665953       15.25701389915837
H            3.89892607620471      -36.77206188526649       15.73784435981418
H            1.83731963178901      -39.19862279607891       17.53522538519105
H            3.02215586608639      -39.72895812000714       18.72254380712042
H            3.16790433964161      -40.24872350737554       17.02806137494284
H            5.62434981191826      -40.24248059249996       16.88564281463420
H            5.20491429998527      -40.32834529944143       18.60766562319096
H            6.78980606712445      -39.74643063939992       18.11994327994927
H            6.21132131852239      -37.90559204437670       15.88917240492550
H            7.16077241893427      -37.51796150953904       17.33145122928799
H            5.83723216613494      -36.46155080770365       16.85766543449369
H            5.87237615271695      -36.35195840975732       21.15180490549141
H            2.16250221361999      -33.34955147580708       28.13022815238146
H            0.47773454631403      -33.78373468445092       28.44606611364590
H            0.88694792096577      -32.65691499460709       27.13846010752306
H            3.00645963112769      -35.56326510377758       27.78803370320427
H            2.16787730722860      -36.73633216950358       26.78090680379245
H            1.44441230205076      -36.20501557538661       28.31645038924031
H           -1.41685839520967      -33.79245303214609       26.86294053782701
H           -1.80924636175846      -34.35039678308873       25.23001206377827
H           -0.54711479339220      -33.14622247461377       25.45266286298522
H           -0.92175579642272      -36.24100985863714       27.59976863292663
H           -0.01154844543853      -37.27741721194872       26.48374370759450
H           -1.56027788403548      -36.60796008096357       25.99178968540950
H            0.93173370070497      -35.83422685378198       22.10907733636903
H            2.95183076650088      -34.15192501404710       18.98890013003239
H            4.25365966013838      -32.49689154670820       20.07753064676498

          :  Hamiltonian                  GFN2-xTB          :
         :: total energy             -82.301444603181 Eh    ::
         :: gradient norm              0.000194487545 Eh/a0 ::
         :: HOMO-LUMO gap              3.220391750150 eV    ::
         :: SCC energy               -83.380219569159 Eh    ::
         :: -> dispersion             -0.061708272263 Eh    ::
         :: repulsion energy           1.078042092974 Eh    ::

    * Orbital Energies and Occupations

         #    Occupation            Energy/Eh            Energy/eV
      -------------------------------------------------------------
         1        2.0000           -0.6876701             -18.7125
       ...           ...                  ...                  ...
        63        2.0000           -0.4346551             -11.8276
        64        2.0000           -0.4320299             -11.7561
        65        2.0000           -0.4302945             -11.7089
        66        2.0000           -0.4205901             -11.4448
        67        2.0000           -0.4195600             -11.4168
        68        2.0000           -0.4148245             -11.2879
        69        2.0000           -0.4064863             -11.0611
        70        2.0000           -0.3973840             -10.8134
        71        2.0000           -0.3968548             -10.7990
        72        2.0000           -0.3939133             -10.7189
        73        2.0000           -0.3848438             -10.4721
        74        2.0000           -0.3514258              -9.5628
        75        2.0000           -0.3449670              -9.3870 (HOMO)
        76                         -0.2266198              -6.1666 (LUMO)
        77                         -0.2097066              -5.7064
        78                         -0.1882704              -5.1231
        79                         -0.1127364              -3.0677
        80                         -0.0970380              -2.6405
        81                         -0.0570190              -1.5516
        82                          0.0087869               0.2391
        83                          0.0104044               0.2831
        84                          0.0286296               0.7791
        85                          0.0292360               0.7956
        86                          0.0569756               1.5504
       ...                                ...                  ...
       144                          0.6922065              18.8359
      -------------------------------------------------------------
                  HL-Gap            0.1183472 Eh            3.2204 eV

     #   Z          covCN         q      C6AA      α(0)
     1   6 C        3.755    -0.117    22.790     6.807
     2   6 C        3.858     0.129    18.448     6.108
     3   8 O        1.638    -0.375    20.380     6.094
     4   6 C        3.755    -0.116    22.774     6.805
     5   6 C        3.858     0.129    18.448     6.108
     6   6 C        3.755    -0.117    22.803     6.809
     7   6 C        3.755    -0.116    22.767     6.804
     8   8 O        1.638    -0.374    20.358     6.091
     9   5 B        2.658     0.433    15.551     6.640
    10   6 C        3.239    -0.076    28.924     8.722
    11   6 C        2.893    -0.047    29.164     8.854
    12   6 C        3.688    -0.017    21.079     6.572
    13   1 H        0.926     0.030     2.583     2.513
    14   6 C        3.865    -0.012    20.748     6.477
    15   1 H        0.925     0.046     2.373     2.409
    16   6 C        2.863    -0.084    30.090     8.991
    17   5 B        2.661     0.432    15.559     6.640
    18   8 O        1.638    -0.373    20.334     6.087
    19   6 C        3.859     0.129    18.455     6.109
    20   6 C        3.755    -0.117    22.799     6.808
    21   6 C        3.755    -0.116    22.779     6.805
    22   6 C        3.860     0.129    18.456     6.110
    23   6 C        3.755    -0.116    22.786     6.806
    24   6 C        3.755    -0.118    22.808     6.810
    25   8 O        1.638    -0.370    20.280     6.079
    26   6 C        2.897    -0.026    28.643     8.775
    27   6 C        3.864    -0.013    20.765     6.480
    28   1 H        0.925     0.044     2.390     2.418
    29   6 C        3.266    -0.022    27.278     8.429
    30   6 C        2.888    -0.053    29.309     8.876
    31   6 C        3.690    -0.014    21.015     6.561
    32   1 H        0.926     0.030     2.579     2.512
    33   1 H        0.925     0.054     2.270     2.356
    34   1 H        0.925     0.039     2.459     2.452
    35   1 H        0.925     0.051     2.307     2.375
    36   1 H        0.925     0.052     2.297     2.370
    37   1 H        0.925     0.044     2.401     2.423
    38   1 H        0.925     0.042     2.423     2.434
    39   1 H        0.925     0.040     2.453     2.449
    40   1 H        0.925     0.052     2.295     2.369
    41   1 H        0.925     0.054     2.269     2.356
    42   1 H        0.925     0.042     2.418     2.432
    43   1 H        0.925     0.052     2.296     2.370
    44   1 H        0.925     0.043     2.410     2.428
    45   1 H        0.925     0.032     2.554     2.499
    46   1 H        0.925     0.054     2.270     2.356
    47   1 H        0.925     0.040     2.452     2.449
    48   1 H        0.925     0.052     2.295     2.369
    49   1 H        0.925     0.052     2.296     2.370
    50   1 H        0.925     0.044     2.398     2.422
    51   1 H        0.925     0.042     2.416     2.431
    52   1 H        0.925     0.043     2.413     2.429
    53   1 H        0.925     0.053     2.287     2.365
    54   1 H        0.925     0.044     2.397     2.421
    55   1 H        0.925     0.040     2.449     2.447
    56   1 H        0.925     0.052     2.293     2.368
    57   1 H        0.925     0.055     2.262     2.352
    58   1 H        0.925     0.038     2.481     2.463
    59   1 H        0.926     0.029     2.594     2.519
    60   1 H        0.925     0.021     2.719     2.579

Wiberg/Mayer (AO) data.
largest (>0.10) Wiberg bond orders for each atom

     #   Z sym  total        # sym  WBO       # sym  WBO       # sym  WBO
 ---------------------------------------------------------------------------
     1   6 C    3.994 --     2 C    0.997    34 H    0.985    33 H    0.983
                            35 H    0.982
     2   6 C    3.943 --     1 C    0.997     4 C    0.991     3 O    0.954
                             5 C    0.936
     3   8 O    2.225 --     9 B    1.121     2 C    0.954
     4   6 C    3.994 --     2 C    0.991    38 H    0.984    37 H    0.984
                            36 H    0.983
     5   6 C    3.942 --     6 C    0.996     7 C    0.991     8 O    0.953
                             2 C    0.936
     6   6 C    3.994 --     5 C    0.996    39 H    0.984    41 H    0.983
                            40 H    0.982
     7   6 C    3.995 --     5 C    0.991    42 H    0.984    44 H    0.984
                            43 H    0.983
     8   8 O    2.228 --     9 B    1.125     5 C    0.953
     9   5 B    3.380 --     8 O    1.125     3 O    1.121    10 C    1.011
    10   6 C    3.954 --    11 C    1.536     9 B    1.011    27 C    0.935
                            29 C    0.244
    11   6 C    3.988 --    10 C    1.536    12 C    1.315    45 H    0.962
    12   6 C    3.948 --    11 C    1.315    13 H    0.974    14 C    0.936
                            31 C    0.553
    13   1 H    0.999 --    12 C    0.974
    14   6 C    3.974 --    16 C    1.013    15 H    0.968    31 C    0.949
                            12 C    0.936
    15   1 H    0.998 --    14 C    0.968
    16   6 C    3.978 --    26 C    1.840    14 C    1.013    17 B    0.998
    17   5 B    3.376 --    25 O    1.133    18 O    1.127    16 C    0.998
    18   8 O    2.232 --    17 B    1.127    19 C    0.953
    19   6 C    3.943 --    20 C    0.997    21 C    0.991    18 O    0.953
                            22 C    0.936
    20   6 C    3.994 --    19 C    0.997    47 H    0.984    46 H    0.983
                            48 H    0.982
    21   6 C    3.994 --    19 C    0.991    51 H    0.984    50 H    0.984
                            49 H    0.983
    22   6 C    3.942 --    24 C    0.996    23 C    0.991    25 O    0.953
                            19 C    0.936
    23   6 C    3.995 --    22 C    0.991    52 H    0.984    54 H    0.984
                            53 H    0.983
    24   6 C    3.994 --    22 C    0.996    55 H    0.984    57 H    0.983
                            56 H    0.982
    25   8 O    2.237 --    17 B    1.133    22 C    0.953
    26   6 C    3.987 --    16 C    1.840    27 C    1.017    58 H    0.967
    27   6 C    3.987 --    26 C    1.017    28 H    0.969    29 C    0.966
                            10 C    0.935
    28   1 H    0.998 --    27 C    0.969
    29   6 C    3.968 --    30 C    1.596    59 H    0.971    27 C    0.966
                            10 C    0.244
    30   6 C    3.985 --    29 C    1.596    31 C    1.288    60 H    0.965
    31   6 C    3.939 --    30 C    1.288    32 H    0.974    14 C    0.949
                            12 C    0.553
    32   1 H    0.999 --    31 C    0.974
    33   1 H    0.997 --     1 C    0.983
    34   1 H    0.998 --     1 C    0.985
    35   1 H    0.997 --     1 C    0.982
    36   1 H    0.997 --     4 C    0.983
    37   1 H    0.998 --     4 C    0.984
    38   1 H    0.998 --     4 C    0.984
    39   1 H    0.998 --     6 C    0.984
    40   1 H    0.997 --     6 C    0.982
    41   1 H    0.997 --     6 C    0.983
    42   1 H    0.998 --     7 C    0.984
    43   1 H    0.997 --     7 C    0.983
    44   1 H    0.998 --     7 C    0.984
    45   1 H    0.999 --    11 C    0.962
    46   1 H    0.997 --    20 C    0.983
    47   1 H    0.998 --    20 C    0.984
    48   1 H    0.997 --    20 C    0.982
    49   1 H    0.997 --    21 C    0.983
    50   1 H    0.998 --    21 C    0.984
    51   1 H    0.998 --    21 C    0.984
    52   1 H    0.998 --    23 C    0.984
    53   1 H    0.997 --    23 C    0.983
    54   1 H    0.998 --    23 C    0.984
    55   1 H    0.998 --    24 C    0.984
    56   1 H    0.997 --    24 C    0.982
    57   1 H    0.997 --    24 C    0.983
    58   1 H    0.998 --    26 C    0.967
    59   1 H    0.999 --    29 C    0.971
    60   1 H    0.999 --    30 C    0.965
 ---------------------------------------------------------------------------

molecular dipole:
                 x           y           z       tot (Debye)
 q only:       -0.247      -0.373       0.176
   full:       -0.101      -0.432       0.090       1.150

           -------------------------------------------------
          | TOTAL ENERGY              -82.301444603181 Eh   |
          | GRADIENT NORM               0.000194487545 Eh/α |
          | HOMO-LUMO GAP               3.220391750150 eV   |
           -------------------------------------------------

 * finished run on 2022/07/09 at 18:33:15.716
