   * xtb version 6.5.0 (homebrew) compiled by 'nhattrup@GPGGRP-SHANNON.CHEME.CMU.EDU' on
          program call               : /opt/homebrew/bin/xtb bvl_bpin2_scan_8-7_xtb.xyz --chrg 0 --uhf 0 --opt --input xcontrol_bvl_bpin2_scan_8-7_xtb

   ID    Z sym.   atoms
    1    6 C      1, 2, 4-7, 10-12, 14, 16, 19-24, 26, 27, 29-31
    2    8 O      3, 8, 18, 25
    3    5 B      9, 17
    4    1 H      13, 15, 28, 32-60
constraining bond 12 31 to    2.3889000 Å, actual value:    2.2781786 Å
constraining bond 10 29 to    1.7222000 Å, actual value:    1.8283259 Å

          :  Hamiltonian                  GFN2-xTB          :
 * total energy  :   -82.1371085 Eh     change       -0.1757854E-08 Eh
 * total energy  :   -82.2664607 Eh     change       -0.1293522E+00 Eh
 * total energy  :   -82.3110621 Eh     change       -0.4460139E-01 Eh
 * total energy  :   -82.3116851 Eh     change       -0.6229945E-03 Eh
 * total energy  :   -82.3122826 Eh     change       -0.5974971E-03 Eh
 * total energy  :   -82.3091689 Eh     change        0.3113662E-02 Eh
 * total energy  :   -82.3126750 Eh     change       -0.3506099E-02 Eh
 * total energy  :   -82.3128673 Eh     change       -0.1922565E-03 Eh
 * total energy  :   -82.3131983 Eh     change       -0.3310054E-03 Eh
 * total energy  :   -82.3134489 Eh     change       -0.2505552E-03 Eh
 * total energy  :   -82.3139347 Eh     change       -0.9443464E-05 Eh
 * total energy  :   -82.3139456 Eh     change       -0.1092550E-04 Eh
 * total energy  :   -82.3139593 Eh     change       -0.1369499E-04 Eh
 * total energy  :   -82.3139696 Eh     change       -0.1028883E-04 Eh
 * total energy  :   -82.3139866 Eh     change       -0.1697269E-04 Eh
 * total energy  :   -82.3139965 Eh     change       -0.9904932E-05 Eh
 * total energy  :   -82.3140041 Eh     change       -0.7630759E-05 Eh
 * total energy  :   -82.3140094 Eh     change       -0.5284101E-05 Eh
 * total energy  :   -82.3140129 Eh     change       -0.3550384E-05 Eh
   *** GEOMETRY OPTIMIZATION CONVERGED AFTER 38 ITERATIONS ***

 final structure:
================
60
 xtb: 6.5.0 (homebrew)
C            3.60674589023800      -37.65163740571828       15.81981205443910
C            3.78692926441692      -38.09871933786361       17.26858979583539
O            3.29966635386515      -37.08289868241706       18.14604335884438
C            2.93429565955230      -39.34914590469541       17.51805151279937
C            5.27986880040530      -38.27686790955334       17.72645996054394
C            5.77324860210385      -39.72091853170716       17.77042732593238
C            6.26106305799545      -37.43520442797985       16.90093769929583
O            5.27892075992041      -37.73454688692819       19.04765600513904
B            4.15396386977580      -36.97746260257072       19.21174902084699
C            3.87270948614838      -36.09817255685517       20.46415817705436
C            4.87403144306084      -36.07662599825855       21.51804907657391
C            4.87674406826880      -35.35512951002261       22.63936886879663
H            5.72259494961423      -35.44599442949457       23.30755083558485
C            3.82527813021018      -34.35760850034041       23.03783436439352
H            4.06986750709474      -33.94948292643232       24.02013784625191
C            2.45263597502787      -34.98573113150454       23.13158518461593
B            1.72229374092803      -34.94291226101794       24.50859590424065
O            2.25750611163580      -34.38520837067166       25.63736434568371
C            1.39904838058294      -34.66681264161614       26.74112625329988
C            1.29894153931112      -33.43525829542755       27.63837305977724
C            2.04835621909967      -35.81120950259405       27.52997928220175
C            0.05523580732819      -35.09142786393770       26.04523907995904
C           -0.92988960906009      -33.92542002778896       25.89122559832730
C           -0.66417375751479      -36.26953829432890       26.69794095604250
O            0.47388253488696      -35.45613376102211       24.73044804215752
C            1.87690179336382      -35.58269226739143       22.08209658948391
C            2.41518181261276      -35.70904931307948       20.72224485496997
H            1.73319818269449      -36.22199905251829       20.05117536566867
C            3.16030818862592      -34.59125225671225       20.05226103960081
C            3.63876599450886      -33.40157721569125       20.71454436170164
C            3.90986305959811      -33.26179318210489       22.01410669016948
H            4.27928730721949      -32.30762723956743       22.36499093146050
H            2.54389358426731      -37.57985559946425       15.60243552775300
H            4.05511353487552      -38.37638565445988       15.14576313965107
H            4.05129918546860      -36.67623296940909       15.65065999225229
H            1.89165142976140      -39.09833124946918       17.33634747316403
H            3.02787903602086      -39.66747055601144       18.55337217839977
H            3.22322199776334      -40.15956811860998       16.85574059754503
H            5.69940765715675      -40.17352188447342       16.78530027021885
H            5.20482379646695      -40.30855166515100       18.48384500493432
H            6.81424884443101      -39.72689754611503       18.08359017267585
H            6.34965294315840      -37.81614458778983       15.88795874915333
H            7.23627745128575      -37.47340134341631       17.38082572822259
H            5.93979239608413      -36.39685556637284       16.87796346436148
H            5.71699466904961      -36.72576722359445       21.31446130939991
H            2.27205888575067      -33.24321755329312       28.08365206640785
H            0.57702491025198      -33.60720485849884       28.43225434646365
H            1.01040128577222      -32.55735088346466       27.06953313135458
H            3.04330067234271      -35.49775510094454       27.83804685401132
H            2.15393554393607      -36.68957012358518       26.89805225989014
H            1.46676292403948      -36.05949946265030       28.41277728637671
H           -1.32909104908159      -33.61829554466978       26.85328817072688
H           -1.74964925845415      -34.24913195452265       25.25401909123808
H           -0.44234837088460      -33.08275189752754       25.40740091831907
H           -0.91177306455878      -36.03329622501757       27.72935022759575
H           -0.05571657437678      -37.16739682958055       26.66688936684535
H           -1.58322079148511      -36.46663666581119       26.15169745033885
H            0.90030074694887      -36.02538299484061       22.23209819811328
H            3.01219812457864      -34.51909956812030       18.98548263174613
H            3.80201836592092      -32.55530808533737       20.05698095114471

          :  Hamiltonian                  GFN2-xTB          :
         :: total energy             -82.314012925926 Eh    ::
         :: gradient norm              0.000696393916 Eh/a0 ::
         :: HOMO-LUMO gap              3.210144729225 eV    ::
         :: SCC energy               -83.392386196627 Eh    ::
         :: -> dispersion             -0.061876340458 Eh    ::
         :: repulsion energy           1.077510576898 Eh    ::

    * Orbital Energies and Occupations

         #    Occupation            Energy/Eh            Energy/eV
      -------------------------------------------------------------
         1        2.0000           -0.6914562             -18.8155
       ...           ...                  ...                  ...
        63        2.0000           -0.4340910             -11.8122
        64        2.0000           -0.4333259             -11.7914
        65        2.0000           -0.4286009             -11.6628
        66        2.0000           -0.4226263             -11.5002
        67        2.0000           -0.4189598             -11.4005
        68        2.0000           -0.4144725             -11.2784
        69        2.0000           -0.4022295             -10.9452
        70        2.0000           -0.3999261             -10.8825
        71        2.0000           -0.3972824             -10.8106
        72        2.0000           -0.3951541             -10.7527
        73        2.0000           -0.3886205             -10.5749
        74        2.0000           -0.3560578              -9.6888
        75        2.0000           -0.3438359              -9.3563 (HOMO)
        76                         -0.2258652              -6.1461 (LUMO)
        77                         -0.2036827              -5.5425
        78                         -0.1827637              -4.9733
        79                         -0.1434068              -3.9023
        80                         -0.0952100              -2.5908
        81                         -0.0252460              -0.6870
        82                          0.0057384               0.1562
        83                          0.0106517               0.2898
        84                          0.0254935               0.6937
        85                          0.0300793               0.8185
        86                          0.0538513               1.4654
       ...                                ...                  ...
       144                          0.6762580              18.4019
      -------------------------------------------------------------
                  HL-Gap            0.1179706 Eh            3.2101 eV

     #   Z          covCN         q      C6AA      α(0)
     1   6 C        3.755    -0.117    22.798     6.808
     2   6 C        3.859     0.130    18.439     6.107
     3   8 O        1.638    -0.380    20.470     6.107
     4   6 C        3.755    -0.116    22.781     6.806
     5   6 C        3.860     0.129    18.446     6.108
     6   6 C        3.755    -0.118    22.809     6.810
     7   6 C        3.755    -0.116    22.778     6.805
     8   8 O        1.638    -0.372    20.330     6.086
     9   5 B        2.658     0.438    15.494     6.628
    10   6 C        3.775    -0.067    21.817     6.655
    11   6 C        2.890    -0.041    29.028     8.833
    12   6 C        2.909    -0.038    28.933     8.820
    13   1 H        0.925     0.024     2.675     2.558
    14   6 C        3.865    -0.016    20.825     6.489
    15   1 H        0.924     0.043     2.403     2.424
    16   6 C        2.868    -0.081    30.033     8.983
    17   5 B        2.661     0.432    15.556     6.639
    18   8 O        1.638    -0.370    20.288     6.080
    19   6 C        3.860     0.129    18.455     6.109
    20   6 C        3.755    -0.117    22.795     6.808
    21   6 C        3.755    -0.116    22.773     6.804
    22   6 C        3.860     0.129    18.451     6.109
    23   6 C        3.755    -0.116    22.779     6.805
    24   6 C        3.755    -0.117    22.801     6.809
    25   8 O        1.638    -0.373    20.338     6.087
    26   6 C        2.895    -0.029    28.722     8.787
    27   6 C        3.860    -0.005    20.635     6.460
    28   1 H        0.925     0.042     2.420     2.433
    29   6 C        3.803    -0.015    20.849     6.501
    30   6 C        2.889    -0.037    28.926     8.818
    31   6 C        2.910    -0.034    28.847     8.807
    32   1 H        0.925     0.025     2.657     2.549
    33   1 H        0.925     0.054     2.265     2.353
    34   1 H        0.925     0.040     2.446     2.446
    35   1 H        0.925     0.052     2.299     2.371
    36   1 H        0.925     0.052     2.294     2.369
    37   1 H        0.925     0.044     2.399     2.422
    38   1 H        0.925     0.043     2.410     2.428
    39   1 H        0.925     0.040     2.445     2.445
    40   1 H        0.925     0.053     2.288     2.366
    41   1 H        0.925     0.055     2.257     2.349
    42   1 H        0.925     0.043     2.409     2.427
    43   1 H        0.925     0.053     2.283     2.363
    44   1 H        0.925     0.043     2.405     2.425
    45   1 H        0.925     0.034     2.536     2.490
    46   1 H        0.925     0.054     2.269     2.356
    47   1 H        0.925     0.039     2.459     2.452
    48   1 H        0.925     0.052     2.297     2.370
    49   1 H        0.925     0.052     2.295     2.369
    50   1 H        0.925     0.044     2.403     2.424
    51   1 H        0.925     0.042     2.422     2.434
    52   1 H        0.925     0.042     2.417     2.431
    53   1 H        0.925     0.052     2.295     2.369
    54   1 H        0.925     0.044     2.402     2.424
    55   1 H        0.925     0.040     2.454     2.450
    56   1 H        0.925     0.052     2.296     2.369
    57   1 H        0.925     0.054     2.269     2.356
    58   1 H        0.925     0.036     2.498     2.472
    59   1 H        0.926     0.038     2.472     2.459
    60   1 H        0.925     0.024     2.668     2.554

Wiberg/Mayer (AO) data.
largest (>0.10) Wiberg bond orders for each atom

     #   Z sym  total        # sym  WBO       # sym  WBO       # sym  WBO
 ---------------------------------------------------------------------------
     1   6 C    3.994 --     2 C    0.997    34 H    0.984    33 H    0.983
                            35 H    0.982
     2   6 C    3.942 --     1 C    0.997     4 C    0.991     3 O    0.952
                             5 C    0.937
     3   8 O    2.221 --     9 B    1.120     2 C    0.952
     4   6 C    3.994 --     2 C    0.991    38 H    0.984    37 H    0.984
                            36 H    0.983
     5   6 C    3.942 --     6 C    0.997     7 C    0.991     8 O    0.951
                             2 C    0.937
     6   6 C    3.994 --     5 C    0.997    39 H    0.984    41 H    0.982
                            40 H    0.982
     7   6 C    3.995 --     5 C    0.991    42 H    0.984    44 H    0.984
                            43 H    0.983
     8   8 O    2.231 --     9 B    1.131     5 C    0.951
     9   5 B    3.382 --     8 O    1.131     3 O    1.120    10 C    1.011
    10   6 C    3.918 --    11 C    1.114     9 B    1.011    27 C    0.879
                            29 C    0.723
    11   6 C    3.990 --    12 C    1.827    10 C    1.114    45 H    0.962
    12   6 C    3.988 --    11 C    1.827    14 C    0.980    13 H    0.969
    13   1 H    0.999 --    12 C    0.969
    14   6 C    3.996 --    31 C    0.984    12 C    0.980    16 C    0.978
                            15 H    0.972
    15   1 H    0.998 --    14 C    0.972
    16   6 C    3.975 --    26 C    1.816    17 B    1.001    14 C    0.978
    17   5 B    3.375 --    18 O    1.129    25 O    1.128    16 C    1.001
    18   8 O    2.234 --    17 B    1.129    19 C    0.954
    19   6 C    3.943 --    20 C    0.997    21 C    0.990    18 O    0.954
                            22 C    0.937
    20   6 C    3.994 --    19 C    0.997    47 H    0.985    46 H    0.983
                            48 H    0.982
    21   6 C    3.994 --    19 C    0.990    51 H    0.984    50 H    0.984
                            49 H    0.983
    22   6 C    3.943 --    24 C    0.996    23 C    0.990    25 O    0.953
                            19 C    0.937
    23   6 C    3.995 --    22 C    0.990    52 H    0.984    54 H    0.984
                            53 H    0.983
    24   6 C    3.994 --    22 C    0.996    55 H    0.985    57 H    0.983
                            56 H    0.982
    25   8 O    2.231 --    17 B    1.128    22 C    0.953
    26   6 C    3.988 --    16 C    1.816    27 C    1.063    58 H    0.965
    27   6 C    3.968 --    26 C    1.063    28 H    0.969    29 C    0.937
                            10 C    0.879
    28   1 H    0.998 --    27 C    0.969
    29   6 C    3.940 --    30 C    1.133    59 H    0.974    27 C    0.937
                            10 C    0.723
    30   6 C    3.990 --    31 C    1.811    29 C    1.133    60 H    0.964
    31   6 C    3.983 --    30 C    1.811    14 C    0.984    32 H    0.970
    32   1 H    0.999 --    31 C    0.970
    33   1 H    0.997 --     1 C    0.983
    34   1 H    0.998 --     1 C    0.984
    35   1 H    0.997 --     1 C    0.982
    36   1 H    0.997 --     4 C    0.983
    37   1 H    0.998 --     4 C    0.984
    38   1 H    0.998 --     4 C    0.984
    39   1 H    0.998 --     6 C    0.984
    40   1 H    0.997 --     6 C    0.982
    41   1 H    0.997 --     6 C    0.982
    42   1 H    0.998 --     7 C    0.984
    43   1 H    0.997 --     7 C    0.983
    44   1 H    0.998 --     7 C    0.984
    45   1 H    0.999 --    11 C    0.962
    46   1 H    0.997 --    20 C    0.983
    47   1 H    0.998 --    20 C    0.985
    48   1 H    0.997 --    20 C    0.982
    49   1 H    0.997 --    21 C    0.983
    50   1 H    0.998 --    21 C    0.984
    51   1 H    0.998 --    21 C    0.984
    52   1 H    0.998 --    23 C    0.984
    53   1 H    0.997 --    23 C    0.983
    54   1 H    0.998 --    23 C    0.984
    55   1 H    0.998 --    24 C    0.985
    56   1 H    0.997 --    24 C    0.982
    57   1 H    0.997 --    24 C    0.983
    58   1 H    0.998 --    26 C    0.965
    59   1 H    0.998 --    29 C    0.974
    60   1 H    0.999 --    30 C    0.964
 ---------------------------------------------------------------------------

molecular dipole:
                 x           y           z       tot (Debye)
 q only:       -0.283      -0.433      -0.115
   full:       -0.287      -0.512      -0.187       1.567

           -------------------------------------------------
          | TOTAL ENERGY              -82.314012925926 Eh   |
          | GRADIENT NORM               0.000696393916 Eh/α |
          | HOMO-LUMO GAP               3.210144729225 eV   |
           -------------------------------------------------

 * finished run on 2022/07/09 at 18:33:42.476
