   * xtb version 6.5.0 (homebrew) compiled by 'nhattrup@GPGGRP-SHANNON.CHEME.CMU.EDU' on
          program call               : /opt/homebrew/bin/xtb bvl_bpin2_scan_2-2_xtb.xyz --chrg 0 --uhf 0 --opt --input xcontrol_bvl_bpin2_scan_2-2_xtb

   ID    Z sym.   atoms
    1    6 C      1, 2, 4-7, 10-12, 14, 16, 19-24, 26, 27, 29-31
    2    8 O      3, 8, 18, 25
    3    5 B      9, 17
    4    1 H      13, 15, 28, 32-60
constraining bond 12 31 to    1.7222000 Å, actual value:    1.6076520 Å
constraining bond 10 29 to    2.2778000 Å, actual value:    2.3895316 Å

          :  Hamiltonian                  GFN2-xTB          :
 * total energy  :   -82.1369287 Eh     change       -0.3727465E-08 Eh
 * total energy  :   -82.2616820 Eh     change       -0.1247533E+00 Eh
 * total energy  :   -82.3083052 Eh     change       -0.4662317E-01 Eh
 * total energy  :   -82.3089981 Eh     change       -0.6928946E-03 Eh
 * total energy  :   -82.3082309 Eh     change        0.7672115E-03 Eh
 * total energy  :   -82.3077734 Eh     change        0.4574952E-03 Eh
 * total energy  :   -82.3097412 Eh     change       -0.1967823E-02 Eh
 * total energy  :   -82.3100097 Eh     change       -0.2684597E-03 Eh
 * total energy  :   -82.3101550 Eh     change       -0.1452855E-03 Eh
 * total energy  :   -82.3105206 Eh     change       -0.3656735E-03 Eh
 * total energy  :   -82.3112587 Eh     change       -0.8445290E-05 Eh
 * total energy  :   -82.3112648 Eh     change       -0.6036816E-05 Eh
 * total energy  :   -82.3112707 Eh     change       -0.5909639E-05 Eh
 * total energy  :   -82.3112785 Eh     change       -0.7792262E-05 Eh
 * total energy  :   -82.3112882 Eh     change       -0.9782705E-05 Eh
 * total energy  :   -82.3112975 Eh     change       -0.9280601E-05 Eh
 * total energy  :   -82.3113055 Eh     change       -0.7967399E-05 Eh
 * total energy  :   -82.3113136 Eh     change       -0.8121848E-05 Eh
 * total energy  :   -82.3113160 Eh     change       -0.2358568E-05 Eh
   *** GEOMETRY OPTIMIZATION CONVERGED AFTER 44 ITERATIONS ***

 final structure:
================
60
 xtb: 6.5.0 (homebrew)
C            3.34453740940594      -37.96933080551450       16.07261768381583
C            3.63935800685735      -38.24170551164684       17.54602221031768
O            3.22465307185192      -37.12518037370484       18.33015933130085
C            2.80675179780053      -39.44390755418127       18.01007445143689
C            5.16416990538057      -38.38056177112753       17.90249396272170
C            5.65372500667250      -39.81519023829595       18.08794271386644
C            6.07917018660513      -37.66421041449012       16.90090552685894
O            5.27302036869582      -37.67741133292891       19.13931446831814
B            4.16192040665646      -36.89440515843250       19.30101906630361
C            3.97787449672361      -35.87298429786470       20.45993597614565
C            5.00391008066793      -35.64186554205180       21.30991262952218
C            5.07371190544860      -34.69542751006740       22.38374496050794
H            6.01937083680476      -34.63572465862984       22.90292848226220
C            3.89295952988512      -34.09237475769288       23.10662427204144
H            4.12294168896258      -33.78923312119467       24.12357416188511
C            2.54370507373534      -34.70632963280437       23.03373661768328
B            1.75852644656189      -34.84682939537417       24.37641460061826
O            2.24592314517475      -34.43067089561080       25.58545280740233
C            1.36893699891971      -34.88571733580136       26.61524139088957
C            1.20146770222212      -33.78958953597019       27.66504370706021
C            2.04108173015388      -36.10310732938432       27.26295502478771
C            0.05939160421952      -35.25676834007078       25.82842670756690
C           -0.97081276234159      -34.12037928927366       25.81414215039052
C           -0.62380237200006      -36.54395029473556       26.28499953206031
O            0.52191439267991      -35.41574872423745       24.48728055310988
C            2.01781800334002      -35.16177475016747       21.89379987290847
C            2.66067027203952      -35.13939528442849       20.54499963837004
H            1.97536625387236      -35.57394624731696       19.81600765497104
C            3.11718448692612      -33.80083140135329       20.06211049578243
C            3.87859133412598      -32.94085293976203       20.74946465066975
C            4.41744710855015      -33.14009412670402       22.06870151201453
H            5.06052771455457      -32.35479663379565       22.43968710169900
H            2.26795829881258      -37.90527582696271       15.93494941828805
H            3.73028260757257      -38.77750983567549       15.45703756048132
H            3.78080938082579      -37.02903789063897       15.75160334146103
H            1.75362662247931      -39.20568213335562       17.87881469189785
H            2.97865143524672      -39.63337523708162       19.06670474178519
H            3.04275086851466      -40.33266236238984       17.43262008823506
H            5.49425288389262      -40.38783015589442       17.17824243747911
H            5.14526362039572      -40.29864759896165       18.91571047990171
H            6.71763401567087      -39.79771935338255       18.31092235677461
H            6.08453221806548      -38.17106626370127       15.94057239860614
H            7.08965602287507      -37.65579408130512       17.30311841607493
H            5.76139065660633      -36.63255582879455       16.77255463329847
H            5.92259761064821      -36.18255681541908       21.11590990022218
H            2.15537231981553      -33.62770610083879       28.16093804817222
H            0.46633015968487      -34.08948247822119       28.40691384225309
H            0.89622101383403      -32.85318576533020       27.20953009914637
H            3.01484560745930      -35.79941900138817       27.64055373908056
H            2.19744829844584      -36.88329614046248       26.52221817203860
H            1.44722633385269      -36.48890387699286       28.08602518913764
H           -1.40108926064018      -33.96770656734815       26.79938727062484
H           -1.76378067399684      -34.38312043029543       25.11784163150827
H           -0.51045902203338      -33.19946171458131       25.46546243385347
H           -0.91076899728222      -36.46743735042389       27.33029522384873
H            0.02532162064446      -37.40260172735853       26.14819272027517
H           -1.51699688189877      -36.69883157613256       25.68496252005361
H            1.03243861710751      -35.60503371797056       21.94003464285017
H            2.84686530212378      -33.54943779125441       19.04539244800038
H            4.20333748997487      -32.03131717335331       20.25755763936948

          :  Hamiltonian                  GFN2-xTB          :
         :: total energy             -82.311315965458 Eh    ::
         :: gradient norm              0.000547114393 Eh/a0 ::
         :: HOMO-LUMO gap              3.323937245463 eV    ::
         :: SCC energy               -83.389451751531 Eh    ::
         :: -> dispersion             -0.061401714624 Eh    ::
         :: repulsion energy           1.077225136425 Eh    ::

    * Orbital Energies and Occupations

         #    Occupation            Energy/Eh            Energy/eV
      -------------------------------------------------------------
         1        2.0000           -0.6880128             -18.7218
       ...           ...                  ...                  ...
        63        2.0000           -0.4355786             -11.8527
        64        2.0000           -0.4336470             -11.8001
        65        2.0000           -0.4279370             -11.6448
        66        2.0000           -0.4198405             -11.4244
        67        2.0000           -0.4190476             -11.4029
        68        2.0000           -0.4132311             -11.2446
        69        2.0000           -0.4063158             -11.0564
        70        2.0000           -0.3977281             -10.8227
        71        2.0000           -0.3954420             -10.7605
        72        2.0000           -0.3946514             -10.7390
        73        2.0000           -0.3875404             -10.5455
        74        2.0000           -0.3516289              -9.5683
        75        2.0000           -0.3474778              -9.4554 (HOMO)
        76                         -0.2253254              -6.1314 (LUMO)
        77                         -0.2142434              -5.8299
        78                         -0.1895034              -5.1567
        79                         -0.1044985              -2.8435
        80                         -0.0956019              -2.6015
        81                         -0.0401890              -1.0936
        82                          0.0083870               0.2282
        83                          0.0121326               0.3301
        84                          0.0284652               0.7746
        85                          0.0305882               0.8323
        86                          0.0567644               1.5446
       ...                                ...                  ...
       144                          0.6843483              18.6221
      -------------------------------------------------------------
                  HL-Gap            0.1221524 Eh            3.3239 eV

     #   Z          covCN         q      C6AA      α(0)
     1   6 C        3.755    -0.117    22.791     6.807
     2   6 C        3.859     0.129    18.451     6.109
     3   8 O        1.638    -0.373    20.339     6.088
     4   6 C        3.755    -0.116    22.771     6.804
     5   6 C        3.859     0.129    18.449     6.108
     6   6 C        3.755    -0.117    22.799     6.808
     7   6 C        3.755    -0.116    22.770     6.804
     8   8 O        1.638    -0.375    20.374     6.093
     9   5 B        2.660     0.431    15.566     6.642
    10   6 C        2.933    -0.084    30.110     8.999
    11   6 C        2.894    -0.035    28.862     8.808
    12   6 C        3.801    -0.019    20.908     6.510
    13   1 H        0.926     0.032     2.562     2.503
    14   6 C        3.864    -0.011    20.723     6.474
    15   1 H        0.925     0.045     2.382     2.413
    16   6 C        2.863    -0.085    30.125     8.997
    17   5 B        2.661     0.432    15.557     6.639
    18   8 O        1.638    -0.373    20.349     6.089
    19   6 C        3.859     0.129    18.454     6.109
    20   6 C        3.755    -0.117    22.800     6.808
    21   6 C        3.755    -0.116    22.780     6.805
    22   6 C        3.860     0.129    18.456     6.110
    23   6 C        3.755    -0.117    22.786     6.806
    24   6 C        3.755    -0.118    22.808     6.810
    25   8 O        1.638    -0.370    20.279     6.079
    26   6 C        2.899    -0.026    28.644     8.775
    27   6 C        3.864    -0.015    20.796     6.485
    28   1 H        0.924     0.045     2.384     2.414
    29   6 C        2.959    -0.032    28.788     8.801
    30   6 C        2.889    -0.042    29.047     8.836
    31   6 C        3.803    -0.016    20.858     6.502
    32   1 H        0.926     0.031     2.565     2.505
    33   1 H        0.925     0.054     2.271     2.357
    34   1 H        0.925     0.039     2.462     2.454
    35   1 H        0.925     0.051     2.303     2.373
    36   1 H        0.925     0.052     2.298     2.371
    37   1 H        0.925     0.043     2.405     2.425
    38   1 H        0.925     0.042     2.426     2.436
    39   1 H        0.925     0.039     2.457     2.451
    40   1 H        0.925     0.052     2.298     2.370
    41   1 H        0.925     0.054     2.273     2.358
    42   1 H        0.925     0.042     2.421     2.433
    43   1 H        0.925     0.052     2.301     2.372
    44   1 H        0.925     0.043     2.407     2.426
    45   1 H        0.925     0.035     2.517     2.481
    46   1 H        0.925     0.054     2.270     2.356
    47   1 H        0.925     0.040     2.450     2.448
    48   1 H        0.925     0.052     2.294     2.369
    49   1 H        0.925     0.052     2.296     2.369
    50   1 H        0.925     0.044     2.399     2.422
    51   1 H        0.925     0.043     2.414     2.430
    52   1 H        0.925     0.043     2.412     2.429
    53   1 H        0.925     0.053     2.285     2.364
    54   1 H        0.925     0.044     2.397     2.421
    55   1 H        0.925     0.040     2.449     2.447
    56   1 H        0.925     0.052     2.294     2.368
    57   1 H        0.925     0.055     2.260     2.351
    58   1 H        0.925     0.037     2.490     2.468
    59   1 H        0.925     0.026     2.648     2.545
    60   1 H        0.925     0.023     2.687     2.563

Wiberg/Mayer (AO) data.
largest (>0.10) Wiberg bond orders for each atom

     #   Z sym  total        # sym  WBO       # sym  WBO       # sym  WBO
 ---------------------------------------------------------------------------
     1   6 C    3.994 --     2 C    0.997    34 H    0.985    33 H    0.983
                            35 H    0.982
     2   6 C    3.944 --     1 C    0.997     4 C    0.990     3 O    0.954
                             5 C    0.936
     3   8 O    2.229 --     9 B    1.123     2 C    0.954
     4   6 C    3.994 --     2 C    0.990    38 H    0.985    37 H    0.984
                            36 H    0.983
     5   6 C    3.943 --     6 C    0.996     7 C    0.990     8 O    0.954
                             2 C    0.936
     6   6 C    3.994 --     5 C    0.996    39 H    0.985    41 H    0.983
                            40 H    0.982
     7   6 C    3.995 --     5 C    0.990    42 H    0.985    44 H    0.984
                            43 H    0.983
     8   8 O    2.227 --     9 B    1.123     5 C    0.954
     9   5 B    3.378 --     8 O    1.123     3 O    1.123    10 C    1.010
    10   6 C    3.970 --    11 C    1.701     9 B    1.010    27 C    0.954
    11   6 C    3.990 --    10 C    1.701    12 C    1.177    45 H    0.963
    12   6 C    3.941 --    11 C    1.177    13 H    0.974    14 C    0.920
                            31 C    0.719
    13   1 H    0.999 --    12 C    0.974
    14   6 C    3.966 --    16 C    1.029    15 H    0.968    31 C    0.938
                            12 C    0.920
    15   1 H    0.998 --    14 C    0.968
    16   6 C    3.978 --    26 C    1.830    14 C    1.029    17 B    0.997
    17   5 B    3.376 --    25 O    1.134    18 O    1.127    16 C    0.997
    18   8 O    2.232 --    17 B    1.127    19 C    0.953
    19   6 C    3.943 --    20 C    0.997    21 C    0.991    18 O    0.953
                            22 C    0.936
    20   6 C    3.994 --    19 C    0.997    47 H    0.984    46 H    0.983
                            48 H    0.982
    21   6 C    3.994 --    19 C    0.991    51 H    0.984    50 H    0.984
                            49 H    0.983
    22   6 C    3.942 --    24 C    0.996    23 C    0.991    25 O    0.952
                            19 C    0.936
    23   6 C    3.995 --    22 C    0.991    52 H    0.984    54 H    0.984
                            53 H    0.983
    24   6 C    3.994 --    22 C    0.996    55 H    0.985    57 H    0.982
                            56 H    0.982
    25   8 O    2.237 --    17 B    1.134    22 C    0.952
    26   6 C    3.987 --    16 C    1.830    27 C    1.004    58 H    0.967
    27   6 C    3.994 --    26 C    1.004    29 C    0.978    28 H    0.970
                            10 C    0.954
    28   1 H    0.998 --    27 C    0.970
    29   6 C    3.984 --    30 C    1.777    27 C    0.978    59 H    0.970
    30   6 C    3.990 --    29 C    1.777    31 C    1.152    60 H    0.965
    31   6 C    3.935 --    30 C    1.152    32 H    0.975    14 C    0.938
                            12 C    0.719
    32   1 H    0.999 --    31 C    0.975
    33   1 H    0.997 --     1 C    0.983
    34   1 H    0.998 --     1 C    0.985
    35   1 H    0.997 --     1 C    0.982
    36   1 H    0.997 --     4 C    0.983
    37   1 H    0.998 --     4 C    0.984
    38   1 H    0.998 --     4 C    0.985
    39   1 H    0.998 --     6 C    0.985
    40   1 H    0.997 --     6 C    0.982
    41   1 H    0.997 --     6 C    0.983
    42   1 H    0.998 --     7 C    0.985
    43   1 H    0.997 --     7 C    0.983
    44   1 H    0.998 --     7 C    0.984
    45   1 H    0.999 --    11 C    0.963
    46   1 H    0.997 --    20 C    0.983
    47   1 H    0.998 --    20 C    0.984
    48   1 H    0.997 --    20 C    0.982
    49   1 H    0.997 --    21 C    0.983
    50   1 H    0.998 --    21 C    0.984
    51   1 H    0.998 --    21 C    0.984
    52   1 H    0.998 --    23 C    0.984
    53   1 H    0.997 --    23 C    0.983
    54   1 H    0.998 --    23 C    0.984
    55   1 H    0.998 --    24 C    0.985
    56   1 H    0.997 --    24 C    0.982
    57   1 H    0.997 --    24 C    0.982
    58   1 H    0.999 --    26 C    0.967
    59   1 H    0.999 --    29 C    0.970
    60   1 H    0.999 --    30 C    0.965
 ---------------------------------------------------------------------------

molecular dipole:
                 x           y           z       tot (Debye)
 q only:       -0.236      -0.448       0.264
   full:       -0.136      -0.537       0.238       1.533

           -------------------------------------------------
          | TOTAL ENERGY              -82.311315965458 Eh   |
          | GRADIENT NORM               0.000547114393 Eh/α |
          | HOMO-LUMO GAP               3.323937245463 eV   |
           -------------------------------------------------

 * finished run on 2022/07/09 at 18:33:01.807
