   * xtb version 6.5.0 (homebrew) compiled by 'nhattrup@GPGGRP-SHANNON.CHEME.CMU.EDU' on
          program call               : /opt/homebrew/bin/xtb bvl_bpin2_scan_6-8_xtb.xyz --chrg 0 --uhf 0 --opt --input xcontrol_bvl_bpin2_scan_6-8_xtb

   ID    Z sym.   atoms
    1    6 C      1, 2, 4-7, 10-12, 14, 16, 19-24, 26, 27, 29-31
    2    8 O      3, 8, 18, 25
    3    5 B      9, 17
    4    1 H      13, 15, 28, 32-60
constraining bond 12 31 to    2.1667000 Å, actual value:    2.0580861 Å
constraining bond 10 29 to    1.6111000 Å, actual value:    1.7194388 Å

          :  Hamiltonian                  GFN2-xTB          :
 * total energy  :   -82.1386789 Eh     change       -0.1745008E-08 Eh
 * total energy  :   -82.2674198 Eh     change       -0.1287409E+00 Eh
 * total energy  :   -82.3124328 Eh     change       -0.4501300E-01 Eh
 * total energy  :   -82.3130988 Eh     change       -0.6659204E-03 Eh
 * total energy  :   -82.3133315 Eh     change       -0.2327139E-03 Eh
 * total energy  :   -82.3103271 Eh     change        0.3004342E-02 Eh
 * total energy  :   -82.3140051 Eh     change       -0.3677961E-02 Eh
 * total energy  :   -82.3141809 Eh     change       -0.1758416E-03 Eh
 * total energy  :   -82.3143520 Eh     change       -0.1710581E-03 Eh
 * total energy  :   -82.3146427 Eh     change       -0.2907162E-03 Eh
 * total energy  :   -82.3146742 Eh     change       -0.3148922E-04 Eh
 * total energy  :   -82.3147181 Eh     change       -0.4394898E-04 Eh
 * total energy  :   -82.3147382 Eh     change       -0.2001784E-04 Eh
 * total energy  :   -82.3147590 Eh     change       -0.2080428E-04 Eh
 * total energy  :   -82.3147717 Eh     change       -0.1277829E-04 Eh
 * total energy  :   -82.3147830 Eh     change       -0.1122498E-04 Eh
 * total energy  :   -82.3147887 Eh     change       -0.5690876E-05 Eh
 * total energy  :   -82.3147994 Eh     change       -0.1073642E-04 Eh
 * total energy  :   -82.3148038 Eh     change       -0.4447997E-05 Eh
   *** GEOMETRY OPTIMIZATION CONVERGED AFTER 19 ITERATIONS ***

 final structure:
================
60
 xtb: 6.5.0 (homebrew)
C            3.47229080877474      -37.74608085641981       15.90113501774507
C            3.72359015576158      -38.13707449579262       17.35554259748968
O            3.25493910406422      -37.09437912761378       18.21195062161487
C            2.90637778034393      -39.39190203847234       17.68698822816053
C            5.23765373001617      -38.27004453559719       17.75698155730607
C            5.75984423645121      -39.70190566280840       17.84432701150928
C            6.16680007590424      -37.44815182203452       16.85510118666437
O            5.28268788903201      -37.66660940993930       19.05166203399573
B            4.15459026481835      -36.91970083051849       19.22746683402311
C            3.90696885709210      -35.96025384957085       20.43829324376636
C            4.92439729357873      -35.93773110571503       21.48176188541365
C            4.94195137519209      -35.18528834887469       22.58789618082813
H            5.82984768955747      -35.22834886686368       23.20790170147152
C            3.86000137273077      -34.27937477384373       23.06101616594532
H            4.09334894293053      -33.88163917027723       24.04901786512015
C            2.47991229969309      -34.88260637521703       23.11546898242179
B            1.73238718974637      -34.88106789399244       24.48278439492274
O            2.23503058259458      -34.35900799742775       25.64361532163474
C            1.36473053530024      -34.70866661868901       26.71906934406096
C            1.21454845147114      -33.51978193676778       27.66559261684796
C            2.03148818860677      -35.86766703641837       27.47141547471928
C            0.04398231744581      -35.13957003039564       25.98324689626325
C           -0.97803386334371      -34.00086576602844       25.87164673817437
C           -0.64564644731064      -36.37174501602420       26.56526963076351
O            0.49108300010073      -35.42837721640390       24.66011804617145
C            1.90278252012804      -35.45069584713580       22.05213762951986
C            2.45080069066663      -35.58103271543546       20.70095071509827
H            1.76979627340604      -36.07129958440370       20.01401915496739
C            3.28982307915306      -34.52691373800753       20.04462435566987
C            3.83640003684154      -33.36259656080404       20.70935147527428
C            4.12483047246066      -33.25970848774232       22.01252677053112
H            4.61793896649010      -32.35390257000097       22.34569427061554
H            2.39955274238656      -37.69996912816326       15.73015299649139
H            3.90364809134643      -38.48576953675519       15.23241843803888
H            3.88984433321846      -36.76925632335630       15.67947656767453
H            1.85225981448223      -39.16740513791444       17.54073830246184
H            3.04930656588422      -39.67081758348233       18.72792898949652
H            3.18330299006057      -40.22076066130078       17.04244622508075
H            5.65557797728076      -40.19977305919250       16.88406418553456
H            5.23181542034420      -40.26701513885597       18.60540843814380
H            6.81252191195002      -39.67606965881078       18.11460252949787
H            6.21657757419789      -37.86716752476627       15.85471398699282
H            7.16283072059150      -37.45205796185179       17.29163988546242
H            5.82682746025850      -36.41661207003396       16.80667107136980
H            5.79952942896268      -36.52835767141350       21.24314067423490
H            2.17519353772065      -33.31605490011121       28.13215432036569
H            0.48885116367342      -33.74848039230631       28.44158779790466
H            0.90427572095043      -32.62801752246956       27.13080693299950
H            3.01233197680793      -35.54158966348457       27.80989389967678
H            2.17121634210875      -36.71576683519486       26.80577852243762
H            1.44225159161119      -36.16803752833523       28.33267182970037
H           -1.39657825098794      -33.75170500823918       26.84217131786258
H           -1.78045773630177      -34.32277504775968       25.21182333177809
H           -0.51545442800058      -33.12102226714160       25.43170530176785
H           -0.91420909528881      -36.19833671146147       27.60380215899693
H           -0.00819747687358      -37.24710788707156       26.49565239863221
H           -1.55054196284777      -36.56879827193810       25.99581459713649
H            0.91569269121549      -35.87387489892139       22.18739463404291
H            3.12411423521825      -34.41307762625919       18.98143072474350
H            4.13452279033161      -32.55729369817321       20.04924599276421

          :  Hamiltonian                  GFN2-xTB          :
         :: total energy             -82.314803838699 Eh    ::
         :: gradient norm              0.000946901233 Eh/a0 ::
         :: HOMO-LUMO gap              3.279098544186 eV    ::
         :: SCC energy               -83.398065614296 Eh    ::
         :: -> dispersion             -0.061964428012 Eh    ::
         :: repulsion energy           1.082525094795 Eh    ::

    * Orbital Energies and Occupations

         #    Occupation            Energy/Eh            Energy/eV
      -------------------------------------------------------------
         1        2.0000           -0.6930202             -18.8580
       ...           ...                  ...                  ...
        63        2.0000           -0.4357841             -11.8583
        64        2.0000           -0.4345740             -11.8254
        65        2.0000           -0.4296542             -11.6915
        66        2.0000           -0.4236057             -11.5269
        67        2.0000           -0.4183121             -11.3829
        68        2.0000           -0.4123710             -11.2212
        69        2.0000           -0.4040301             -10.9942
        70        2.0000           -0.4011338             -10.9154
        71        2.0000           -0.3979578             -10.8290
        72        2.0000           -0.3949610             -10.7474
        73        2.0000           -0.3834080             -10.4331
        74        2.0000           -0.3565899              -9.7033
        75        2.0000           -0.3440560              -9.3622 (HOMO)
        76                         -0.2235514              -6.0831 (LUMO)
        77                         -0.1945893              -5.2950
        78                         -0.1784941              -4.8571
        79                         -0.1418728              -3.8606
        80                         -0.0951960              -2.5904
        81                          0.0026554               0.0723
        82                          0.0085825               0.2335
        83                          0.0115300               0.3137
        84                          0.0250843               0.6826
        85                          0.0306710               0.8346
        86                          0.0531383               1.4460
       ...                                ...                  ...
       144                          0.6854295              18.6515
      -------------------------------------------------------------
                  HL-Gap            0.1205047 Eh            3.2791 eV

     #   Z          covCN         q      C6AA      α(0)
     1   6 C        3.755    -0.117    22.802     6.809
     2   6 C        3.858     0.130    18.443     6.108
     3   8 O        1.638    -0.378    20.430     6.101
     4   6 C        3.755    -0.117    22.787     6.807
     5   6 C        3.861     0.129    18.449     6.108
     6   6 C        3.755    -0.118    22.813     6.810
     7   6 C        3.755    -0.116    22.782     6.806
     8   8 O        1.638    -0.371    20.303     6.082
     9   5 B        2.658     0.440    15.472     6.623
    10   6 C        3.821    -0.062    21.669     6.625
    11   6 C        2.891    -0.049    29.221     8.863
    12   6 C        3.070    -0.029    28.649     8.776
    13   1 H        0.925     0.024     2.681     2.560
    14   6 C        3.867    -0.015    20.799     6.485
    15   1 H        0.924     0.043     2.408     2.427
    16   6 C        2.865    -0.085    30.121     8.996
    17   5 B        2.661     0.431    15.562     6.641
    18   8 O        1.638    -0.371    20.312     6.084
    19   6 C        3.859     0.129    18.454     6.109
    20   6 C        3.755    -0.117    22.793     6.807
    21   6 C        3.755    -0.116    22.772     6.804
    22   6 C        3.859     0.129    18.452     6.109
    23   6 C        3.755    -0.116    22.778     6.805
    24   6 C        3.755    -0.117    22.800     6.808
    25   8 O        1.638    -0.373    20.346     6.089
    26   6 C        2.896    -0.027    28.683     8.781
    27   6 C        3.861    -0.013    20.763     6.480
    28   1 H        0.925     0.042     2.428     2.437
    29   6 C        3.850    -0.009    20.707     6.472
    30   6 C        2.889    -0.047    29.157     8.853
    31   6 C        3.071    -0.026    28.574     8.765
    32   1 H        0.925     0.024     2.669     2.555
    33   1 H        0.925     0.055     2.258     2.350
    34   1 H        0.925     0.041     2.442     2.444
    35   1 H        0.925     0.052     2.296     2.370
    36   1 H        0.925     0.053     2.287     2.365
    37   1 H        0.925     0.044     2.393     2.419
    38   1 H        0.925     0.043     2.404     2.425
    39   1 H        0.925     0.041     2.437     2.441
    40   1 H        0.925     0.053     2.284     2.363
    41   1 H        0.925     0.056     2.251     2.346
    42   1 H        0.925     0.044     2.402     2.424
    43   1 H        0.925     0.053     2.278     2.360
    44   1 H        0.925     0.043     2.403     2.424
    45   1 H        0.925     0.032     2.557     2.501
    46   1 H        0.925     0.054     2.272     2.357
    47   1 H        0.925     0.039     2.460     2.453
    48   1 H        0.925     0.052     2.299     2.371
    49   1 H        0.925     0.052     2.297     2.370
    50   1 H        0.925     0.043     2.403     2.424
    51   1 H        0.925     0.042     2.425     2.435
    52   1 H        0.925     0.042     2.420     2.433
    53   1 H        0.925     0.052     2.297     2.370
    54   1 H        0.925     0.044     2.401     2.423
    55   1 H        0.925     0.039     2.457     2.451
    56   1 H        0.925     0.052     2.299     2.371
    57   1 H        0.925     0.054     2.272     2.357
    58   1 H        0.925     0.037     2.486     2.466
    59   1 H        0.925     0.034     2.527     2.486
    60   1 H        0.925     0.022     2.700     2.569

Wiberg/Mayer (AO) data.
largest (>0.10) Wiberg bond orders for each atom

     #   Z sym  total        # sym  WBO       # sym  WBO       # sym  WBO
 ---------------------------------------------------------------------------
     1   6 C    3.994 --     2 C    0.997    34 H    0.984    33 H    0.982
                            35 H    0.982
     2   6 C    3.942 --     1 C    0.997     4 C    0.991     3 O    0.950
                             5 C    0.937
     3   8 O    2.226 --     9 B    1.127     2 C    0.950
     4   6 C    3.994 --     2 C    0.991    38 H    0.984    37 H    0.984
                            36 H    0.983
     5   6 C    3.941 --     6 C    0.997     7 C    0.991     8 O    0.949
                             2 C    0.937
     6   6 C    3.994 --     5 C    0.997    39 H    0.984    41 H    0.982
                            40 H    0.982
     7   6 C    3.995 --     5 C    0.991    42 H    0.984    44 H    0.984
                            43 H    0.983
     8   8 O    2.234 --     9 B    1.137     5 C    0.949
     9   5 B    3.377 --     8 O    1.137     3 O    1.127    10 C    0.997
    10   6 C    3.927 --    11 C    1.111     9 B    0.997    27 C    0.871
                            29 C    0.767
    11   6 C    3.989 --    12 C    1.794    10 C    1.111    45 H    0.964
    12   6 C    3.985 --    11 C    1.794    14 C    0.971    13 H    0.968
                            31 C    0.103
    13   1 H    0.999 --    12 C    0.968
    14   6 C    3.992 --    16 C    0.984    31 C    0.978    12 C    0.971
                            15 H    0.970
    15   1 H    0.998 --    14 C    0.970
    16   6 C    3.976 --    26 C    1.815    17 B    1.004    14 C    0.984
    17   5 B    3.376 --    18 O    1.126    25 O    1.126    16 C    1.004
    18   8 O    2.232 --    17 B    1.126    19 C    0.954
    19   6 C    3.943 --    20 C    0.997    21 C    0.991    18 O    0.954
                            22 C    0.936
    20   6 C    3.994 --    19 C    0.997    47 H    0.985    46 H    0.983
                            48 H    0.982
    21   6 C    3.994 --    19 C    0.991    51 H    0.984    50 H    0.984
                            49 H    0.983
    22   6 C    3.943 --    24 C    0.996    23 C    0.990    25 O    0.954
                            19 C    0.936
    23   6 C    3.995 --    22 C    0.990    52 H    0.985    54 H    0.984
                            53 H    0.983
    24   6 C    3.994 --    22 C    0.996    55 H    0.985    57 H    0.983
                            56 H    0.982
    25   8 O    2.230 --    17 B    1.126    22 C    0.954
    26   6 C    3.989 --    16 C    1.815    27 C    1.066    58 H    0.965
    27   6 C    3.956 --    26 C    1.066    28 H    0.969    29 C    0.925
                            10 C    0.871
    28   1 H    0.998 --    27 C    0.969
    29   6 C    3.947 --    30 C    1.124    59 H    0.972    27 C    0.925
                            10 C    0.767
    30   6 C    3.987 --    31 C    1.782    29 C    1.124    60 H    0.966
    31   6 C    3.981 --    30 C    1.782    14 C    0.978    32 H    0.969
                            12 C    0.103
    32   1 H    0.999 --    31 C    0.969
    33   1 H    0.997 --     1 C    0.982
    34   1 H    0.998 --     1 C    0.984
    35   1 H    0.997 --     1 C    0.982
    36   1 H    0.997 --     4 C    0.983
    37   1 H    0.998 --     4 C    0.984
    38   1 H    0.998 --     4 C    0.984
    39   1 H    0.998 --     6 C    0.984
    40   1 H    0.997 --     6 C    0.982
    41   1 H    0.997 --     6 C    0.982
    42   1 H    0.998 --     7 C    0.984
    43   1 H    0.997 --     7 C    0.983
    44   1 H    0.998 --     7 C    0.984
    45   1 H    0.999 --    11 C    0.964
    46   1 H    0.997 --    20 C    0.983
    47   1 H    0.998 --    20 C    0.985
    48   1 H    0.997 --    20 C    0.982
    49   1 H    0.997 --    21 C    0.983
    50   1 H    0.998 --    21 C    0.984
    51   1 H    0.998 --    21 C    0.984
    52   1 H    0.998 --    23 C    0.985
    53   1 H    0.997 --    23 C    0.983
    54   1 H    0.998 --    23 C    0.984
    55   1 H    0.998 --    24 C    0.985
    56   1 H    0.997 --    24 C    0.982
    57   1 H    0.997 --    24 C    0.983
    58   1 H    0.998 --    26 C    0.965
    59   1 H    0.998 --    29 C    0.972
    60   1 H    0.999 --    30 C    0.966
 ---------------------------------------------------------------------------

molecular dipole:
                 x           y           z       tot (Debye)
 q only:       -0.255      -0.543      -0.164
   full:       -0.240      -0.630      -0.223       1.806

           -------------------------------------------------
          | TOTAL ENERGY              -82.314803838699 Eh   |
          | GRADIENT NORM               0.000946901233 Eh/α |
          | HOMO-LUMO GAP               3.279098544186 eV   |
           -------------------------------------------------

 * finished run on 2022/07/09 at 18:33:39.091
