   * xtb version 6.5.0 (homebrew) compiled by 'nhattrup@GPGGRP-SHANNON.CHEME.CMU.EDU' on
          program call               : /opt/homebrew/bin/xtb bvl_bpin2_scan_8-0_xtb.xyz --chrg 0 --uhf 0 --opt --input xcontrol_bvl_bpin2_scan_8-0_xtb

   ID    Z sym.   atoms
    1    6 C      1, 2, 4-7, 10-12, 14, 16, 19-24, 26, 27, 29-31
    2    8 O      3, 8, 18, 25
    3    5 B      9, 17
    4    1 H      13, 15, 28, 32-60
constraining bond 12 31 to    2.3889000 Å, actual value:    2.2739965 Å
constraining bond 10 29 to    2.5000000 Å, actual value:    2.4961869 Å

          :  Hamiltonian                  GFN2-xTB          :
 * total energy  :   -82.1761715 Eh     change       -0.1309792E-07 Eh
 * total energy  :   -82.2346428 Eh     change       -0.5847133E-01 Eh
 * total energy  :   -82.2633167 Eh     change       -0.2867386E-01 Eh
 * total energy  :   -82.2636057 Eh     change       -0.2890249E-03 Eh
 * total energy  :   -82.2639191 Eh     change       -0.3133776E-03 Eh
 * total energy  :   -82.2634881 Eh     change        0.4309458E-03 Eh
 * total energy  :   -82.2640724 Eh     change       -0.5842372E-03 Eh
 * total energy  :   -82.2641616 Eh     change       -0.8926650E-04 Eh
 * total energy  :   -82.2643207 Eh     change       -0.1590883E-03 Eh
 * total energy  :   -82.2643596 Eh     change       -0.3891571E-04 Eh
 * total energy  :   -82.2643784 Eh     change       -0.1876274E-04 Eh
 * total energy  :   -82.2643937 Eh     change       -0.1526065E-04 Eh
 * total energy  :   -82.2643999 Eh     change       -0.6256774E-05 Eh
 * total energy  :   -82.2644080 Eh     change       -0.8085263E-05 Eh
 * total energy  :   -82.2644122 Eh     change       -0.4154880E-05 Eh
 * total energy  :   -82.2644194 Eh     change       -0.7280906E-05 Eh
 * total energy  :   -82.2644216 Eh     change       -0.2165086E-05 Eh
   *** GEOMETRY OPTIMIZATION CONVERGED AFTER 17 ITERATIONS ***

 final structure:
================
60
 xtb: 6.5.0 (homebrew)
C            3.52027441529837      -37.80408838821246       15.96452919042938
C            3.69976755763067      -38.19132126604728       17.43086698817678
O            3.28800133876181      -37.10897573459624       18.26273329343133
C            2.78089382812726      -39.37721938543892       17.75291880143800
C            5.18700762029047      -38.43662661726581       17.87556246891726
C            5.59818293522680      -39.90417430721449       17.97136671515816
C            6.20017122350715      -37.68770410935419       16.99954909750903
O            5.24054509617692      -37.84192389247009       19.17045355617845
B            4.16349821255160      -37.00368763159486       19.31425579183436
C            3.94277534261776      -36.09300192385390       20.54034237725044
C            4.96679005193943      -35.88623104088607       21.45266110374669
C            4.99509192524908      -35.07679264851888       22.56248931971350
H            5.93848303472422      -34.94883754392013       23.07367553259989
C            3.88566380721301      -34.13469625835061       23.01804950454774
H            4.11098826106254      -33.80385112833372       24.03422651922840
C            2.51978989927261      -34.77371258615835       23.03484137138240
B            1.76880971768551      -34.86810978217414       24.39776226689546
O            2.26785683921600      -34.38230468398920       25.57566568398591
C            1.41384348366358      -34.79306984373954       26.64172886698685
C            1.24149211114555      -33.64125071172186       27.62951075805312
C            2.11603851473673      -35.96001016429360       27.34792003958114
C            0.09970533605460      -35.23091223061384       25.89743634587357
C           -0.95553013295083      -34.11882267160633       25.84155432790568
C           -0.54990208139428      -36.50459147523755       26.43430764568620
O            0.54351302588682      -35.45155704189411       24.55944140215527
C            1.98463903726449      -35.27445920654045       21.92167285665173
C            2.63478525168275      -35.25984828118452       20.57434938526794
H            1.96014625920919      -35.72218082702839       19.85080851393612
C            2.94823053792600      -33.85386515214269       20.06412094570922
C            3.63908495321406      -32.89738699702684       20.76319150071272
C            4.03744296934944      -32.94534056768590       22.08437200187575
H            4.68163443998326      -32.15683173698132       22.44599293835847
H            2.45963948306877      -37.67809192356687       15.76115662318302
H            3.91173379632478      -38.58510737740471       15.31824461053472
H            4.01867754199741      -36.86602028839323       15.74247117971792
H            1.75103718340579      -39.07384411650670       17.57860569907579
H            2.87717919856178      -39.65215699835736       18.80033117498731
H            3.00851173410071      -40.23314871213444       17.12451566987878
H            5.48114434759554      -40.39214448554598       17.00742547295581
H            5.00985950912191      -40.42791262724241       18.71769553383011
H            6.64262632528116      -39.95765311079820       18.26856095076651
H            6.24753805798279      -38.11238878745652       16.00128967182236
H            7.18065683026378      -37.76418583403235       17.46411941053427
H            5.93847875642916      -36.63405459578868       16.94043865214556
H            5.86165514365156      -36.47119761044569       21.26572300995764
H            2.20081166216234      -33.43030184825747       28.09563850602433
H            0.52755008516591      -33.91260114904875       28.40247808055398
H            0.90658757933024      -32.73988096964770       27.12656079310235
H            3.09049159402627      -35.61993997380858       27.69109141361236
H            2.27342445425031      -36.77952327253799       26.65121133850390
H            1.54160393327214      -36.30649088379830       28.20174707434658
H           -1.36736781884885      -33.91882635488626       26.82622634178044
H           -1.75766065792589      -34.43849396880009       25.18040519803554
H           -0.52421850769230      -33.21000664959203       25.42975908808319
H           -0.81829610879901      -36.37763492938316       27.47962825531005
H            0.11252906287907      -37.35756492523286       26.32992477768569
H           -1.45137435856598      -36.70700266405826       25.86143043948690
H            1.01080195244256      -35.74047442722858       21.98768379909118
H            2.78448570160562      -33.70497774775309       19.00773046052128
H            3.87593870658994      -31.98197793221731       20.22934966329541

          :  Hamiltonian                  GFN2-xTB          :
         :: total energy             -82.264421598417 Eh    ::
         :: gradient norm              0.000556851185 Eh/a0 ::
         :: HOMO-LUMO gap              0.870272991080 eV    ::
         :: SCC energy               -83.331801864705 Eh    ::
         :: -> dispersion             -0.062095480784 Eh    ::
         :: repulsion energy           1.066393104583 Eh    ::

    * Orbital Energies and Occupations

         #    Occupation            Energy/Eh            Energy/eV
      -------------------------------------------------------------
         1        2.0000           -0.6858917             -18.6641
       ...           ...                  ...                  ...
        63        2.0000           -0.4362955             -11.8722
        64        2.0000           -0.4299261             -11.6989
        65        2.0000           -0.4209242             -11.4539
        66        2.0000           -0.4187678             -11.3953
        67        2.0000           -0.4163235             -11.3287
        68        2.0000           -0.4129744             -11.2376
        69        2.0000           -0.4022732             -10.9464
        70        2.0000           -0.3976483             -10.8206
        71        2.0000           -0.3956638             -10.7666
        72        2.0000           -0.3947084             -10.7406
        73        2.0000           -0.3904648             -10.6251
        74        2.0000           -0.3662867              -9.9672
        75        2.0000           -0.3224986              -8.7756 (HOMO)
        76                         -0.2905167              -7.9054 (LUMO)
        77                         -0.2165149              -5.8917
        78                         -0.1847108              -5.0262
        79                         -0.1542587              -4.1976
        80                         -0.0938934              -2.5550
        81                         -0.0878714              -2.3911
        82                          0.0109165               0.2971
        83                          0.0145611               0.3962
        84                          0.0297358               0.8092
        85                          0.0307789               0.8375
        86                          0.0574624               1.5636
       ...                                ...                  ...
       144                          0.6753039              18.3760
      -------------------------------------------------------------
                  HL-Gap            0.0319819 Eh            0.8703 eV

     #   Z          covCN         q      C6AA      α(0)
     1   6 C        3.755    -0.116    22.786     6.806
     2   6 C        3.858     0.130    18.443     6.108
     3   8 O        1.638    -0.376    20.399     6.097
     4   6 C        3.755    -0.116    22.768     6.804
     5   6 C        3.859     0.130    18.441     6.107
     6   6 C        3.755    -0.117    22.794     6.807
     7   6 C        3.755    -0.115    22.757     6.802
     8   8 O        1.638    -0.376    20.399     6.097
     9   5 B        2.658     0.429    15.605     6.652
    10   6 C        2.866    -0.084    30.101     8.993
    11   6 C        2.891    -0.031    28.773     8.795
    12   6 C        2.908    -0.031    28.771     8.795
    13   1 H        0.926     0.030     2.582     2.513
    14   6 C        3.860    -0.013    20.774     6.482
    15   1 H        0.924     0.049     2.332     2.388
    16   6 C        2.865    -0.084    30.092     8.992
    17   5 B        2.660     0.430    15.581     6.645
    18   8 O        1.638    -0.371    20.307     6.083
    19   6 C        3.859     0.129    18.459     6.110
    20   6 C        3.755    -0.117    22.797     6.808
    21   6 C        3.755    -0.116    22.778     6.805
    22   6 C        3.859     0.129    18.458     6.110
    23   6 C        3.755    -0.116    22.784     6.806
    24   6 C        3.755    -0.118    22.806     6.809
    25   8 O        1.638    -0.370    20.283     6.079
    26   6 C        2.899    -0.026    28.639     8.774
    27   6 C        3.855    -0.017    20.832     6.491
    28   1 H        0.924     0.049     2.337     2.391
    29   6 C        2.894    -0.029    28.714     8.786
    30   6 C        2.888    -0.031    28.779     8.795
    31   6 C        2.909    -0.026    28.647     8.776
    32   1 H        0.926     0.032     2.562     2.503
    33   1 H        0.925     0.054     2.276     2.359
    34   1 H        0.925     0.039     2.467     2.456
    35   1 H        0.925     0.051     2.311     2.377
    36   1 H        0.925     0.051     2.304     2.373
    37   1 H        0.925     0.043     2.403     2.424
    38   1 H        0.925     0.041     2.430     2.438
    39   1 H        0.925     0.039     2.464     2.455
    40   1 H        0.925     0.052     2.298     2.370
    41   1 H        0.925     0.053     2.278     2.360
    42   1 H        0.925     0.042     2.427     2.436
    43   1 H        0.925     0.051     2.310     2.377
    44   1 H        0.925     0.042     2.421     2.433
    45   1 H        0.925     0.037     2.489     2.467
    46   1 H        0.925     0.054     2.272     2.357
    47   1 H        0.925     0.039     2.456     2.451
    48   1 H        0.925     0.052     2.299     2.371
    49   1 H        0.925     0.052     2.298     2.371
    50   1 H        0.925     0.044     2.399     2.422
    51   1 H        0.925     0.042     2.421     2.433
    52   1 H        0.925     0.042     2.416     2.431
    53   1 H        0.925     0.052     2.291     2.367
    54   1 H        0.925     0.044     2.401     2.423
    55   1 H        0.925     0.040     2.453     2.449
    56   1 H        0.925     0.052     2.296     2.369
    57   1 H        0.925     0.054     2.266     2.354
    58   1 H        0.925     0.037     2.494     2.470
    59   1 H        0.926     0.034     2.534     2.489
    60   1 H        0.925     0.028     2.621     2.532

Wiberg/Mayer (AO) data.
largest (>0.10) Wiberg bond orders for each atom

     #   Z sym  total        # sym  WBO       # sym  WBO       # sym  WBO
 ---------------------------------------------------------------------------
     1   6 C    3.994 --     2 C    0.996    34 H    0.985    33 H    0.983
                            35 H    0.983
     2   6 C    3.944 --     1 C    0.996     4 C    0.990     3 O    0.955
                             5 C    0.937
     3   8 O    2.218 --     9 B    1.112     2 C    0.955
     4   6 C    3.994 --     2 C    0.990    38 H    0.985    37 H    0.984
                            36 H    0.983
     5   6 C    3.943 --     6 C    0.996     7 C    0.990     8 O    0.955
                             2 C    0.937
     6   6 C    3.994 --     5 C    0.996    39 H    0.985    41 H    0.983
                            40 H    0.982
     7   6 C    3.994 --     5 C    0.990    42 H    0.985    44 H    0.984
                            43 H    0.983
     8   8 O    2.218 --     9 B    1.112     5 C    0.955
     9   5 B    3.389 --     8 O    1.112     3 O    1.112    10 C    1.034
    10   6 C    3.944 --    11 C    1.442     9 B    1.034    27 C    0.945
                            29 C    0.217    31 C    0.176
    11   6 C    3.991 --    12 C    1.498    10 C    1.442    45 H    0.959
    12   6 C    3.955 --    11 C    1.498    13 H    0.972    14 C    0.966
                            31 C    0.268    29 C    0.166
    13   1 H    0.999 --    12 C    0.972
    14   6 C    3.992 --    16 C    0.994    31 C    0.980    15 H    0.969
                            12 C    0.966
    15   1 H    0.997 --    14 C    0.969
    16   6 C    3.977 --    26 C    1.857    17 B    1.001    14 C    0.994
    17   5 B    3.376 --    25 O    1.131    18 O    1.127    16 C    1.001
    18   8 O    2.234 --    17 B    1.127    19 C    0.954
    19   6 C    3.943 --    20 C    0.997    21 C    0.991    18 O    0.954
                            22 C    0.936
    20   6 C    3.994 --    19 C    0.997    47 H    0.985    46 H    0.983
                            48 H    0.982
    21   6 C    3.994 --    19 C    0.991    51 H    0.985    50 H    0.984
                            49 H    0.983
    22   6 C    3.943 --    24 C    0.996    23 C    0.990    25 O    0.954
                            19 C    0.936
    23   6 C    3.995 --    22 C    0.990    52 H    0.984    54 H    0.984
                            53 H    0.983
    24   6 C    3.994 --    22 C    0.996    55 H    0.985    57 H    0.983
                            56 H    0.982
    25   8 O    2.236 --    17 B    1.131    22 C    0.954
    26   6 C    3.986 --    16 C    1.857    27 C    1.010    58 H    0.966
    27   6 C    3.992 --    26 C    1.010    29 C    0.983    28 H    0.971
                            10 C    0.945
    28   1 H    0.997 --    27 C    0.971
    29   6 C    3.959 --    30 C    1.514    27 C    0.983    59 H    0.973
                            10 C    0.217    12 C    0.166
    30   6 C    3.993 --    29 C    1.514    31 C    1.452    60 H    0.962
    31   6 C    3.937 --    30 C    1.452    14 C    0.980    32 H    0.973
                            12 C    0.268    10 C    0.176
    32   1 H    0.999 --    31 C    0.973
    33   1 H    0.997 --     1 C    0.983
    34   1 H    0.998 --     1 C    0.985
    35   1 H    0.997 --     1 C    0.983
    36   1 H    0.997 --     4 C    0.983
    37   1 H    0.998 --     4 C    0.984
    38   1 H    0.998 --     4 C    0.985
    39   1 H    0.998 --     6 C    0.985
    40   1 H    0.997 --     6 C    0.982
    41   1 H    0.997 --     6 C    0.983
    42   1 H    0.998 --     7 C    0.985
    43   1 H    0.997 --     7 C    0.983
    44   1 H    0.998 --     7 C    0.984
    45   1 H    0.998 --    11 C    0.959
    46   1 H    0.997 --    20 C    0.983
    47   1 H    0.998 --    20 C    0.985
    48   1 H    0.997 --    20 C    0.982
    49   1 H    0.997 --    21 C    0.983
    50   1 H    0.998 --    21 C    0.984
    51   1 H    0.998 --    21 C    0.985
    52   1 H    0.998 --    23 C    0.984
    53   1 H    0.997 --    23 C    0.983
    54   1 H    0.998 --    23 C    0.984
    55   1 H    0.998 --    24 C    0.985
    56   1 H    0.997 --    24 C    0.982
    57   1 H    0.997 --    24 C    0.983
    58   1 H    0.999 --    26 C    0.966
    59   1 H    0.998 --    29 C    0.973
    60   1 H    0.999 --    30 C    0.962
 ---------------------------------------------------------------------------

molecular dipole:
                 x           y           z       tot (Debye)
 q only:       -0.244      -0.282       0.162
   full:       -0.057      -0.325       0.020       0.840

           -------------------------------------------------
          | TOTAL ENERGY              -82.264421598417 Eh   |
          | GRADIENT NORM               0.000556851185 Eh/α |
          | HOMO-LUMO GAP               0.870272991080 eV   |
           -------------------------------------------------

 * finished run on 2022/07/09 at 18:33:16.884
