   * xtb version 6.5.0 (homebrew) compiled by 'nhattrup@GPGGRP-SHANNON.CHEME.CMU.EDU' on
          program call               : /opt/homebrew/bin/xtb bvl_bpin2_scan_5-2_xtb.xyz --chrg 0 --uhf 0 --opt --input xcontrol_bvl_bpin2_scan_5-2_xtb

   ID    Z sym.   atoms
    1    6 C      1, 2, 4-7, 10-12, 14, 16, 19-24, 26, 27, 29-31
    2    8 O      3, 8, 18, 25
    3    5 B      9, 17
    4    1 H      13, 15, 28, 32-60
constraining bond 12 31 to    2.0556000 Å, actual value:    1.9394883 Å
constraining bond 10 29 to    2.2778000 Å, actual value:    2.3875187 Å

          :  Hamiltonian                  GFN2-xTB          :
 * total energy  :   -82.1120644 Eh     change       -0.3502038E-08 Eh
 * total energy  :   -82.2439739 Eh     change       -0.1319096E+00 Eh
 * total energy  :   -82.2872339 Eh     change       -0.4326001E-01 Eh
 * total energy  :   -82.2879774 Eh     change       -0.7434190E-03 Eh
 * total energy  :   -82.2879101 Eh     change        0.6721665E-04 Eh
 * total energy  :   -82.2855725 Eh     change        0.2337664E-02 Eh
 * total energy  :   -82.2889317 Eh     change       -0.3359208E-02 Eh
 * total energy  :   -82.2891173 Eh     change       -0.1855793E-03 Eh
 * total energy  :   -82.2893099 Eh     change       -0.1926698E-03 Eh
 * total energy  :   -82.2896137 Eh     change       -0.3037668E-03 Eh
 * total energy  :   -82.2902290 Eh     change       -0.2146671E-04 Eh
 * total energy  :   -82.2902462 Eh     change       -0.1716811E-04 Eh
 * total energy  :   -82.2902587 Eh     change       -0.1257996E-04 Eh
 * total energy  :   -82.2902695 Eh     change       -0.1076026E-04 Eh
 * total energy  :   -82.2902803 Eh     change       -0.1077408E-04 Eh
 * total energy  :   -82.2902908 Eh     change       -0.1053112E-04 Eh
 * total energy  :   -82.2902994 Eh     change       -0.8595779E-05 Eh
 * total energy  :   -82.2903055 Eh     change       -0.6087889E-05 Eh
 * total energy  :   -82.2903100 Eh     change       -0.4471374E-05 Eh
   *** GEOMETRY OPTIMIZATION CONVERGED AFTER 43 ITERATIONS ***

 final structure:
================
60
 xtb: 6.5.0 (homebrew)
C            3.50763056468741      -37.80607596537857       15.96220053115615
C            3.71413643562163      -38.19302866512177       17.42510097005641
O            3.26385820270946      -37.13343536081074       18.26615572017936
C            2.84533459088194      -39.41590036029538       17.74711218500638
C            5.21492585401615      -38.37884335990812       17.85581216210644
C            5.67817840049472      -39.83012329719615       17.96417184254430
C            6.19345949407321      -37.60674363743404       16.96120966683663
O            5.26146685789440      -37.76819164095052       19.14382913761268
B            4.14848037011668      -36.98513895612363       19.30252618587645
C            3.90662851080269      -36.06539797603757       20.52541810607254
C            4.93995040972654      -35.80414599671984       21.39537862820410
C            4.97140453895172      -34.94636024812208       22.48867228211504
H            5.92425199178760      -34.78230914621572       22.97063884956918
C            3.81958949246629      -34.15793995395038       23.05112728383934
H            4.04594371081777      -33.79662235334231       24.05373227061119
C            2.46434526907901      -34.79517519319153       23.06001178061832
B            1.71539352650081      -34.86698412717466       24.42687859438848
O            2.24244941332934      -34.40620736028310       25.60297997207138
C            1.39005415001965      -34.80715009496067       26.67476226630183
C            1.27427029076061      -33.67164324444738       27.68892603438657
C            2.05896696676743      -36.01414416776090       27.34499891217522
C            0.05151602637284      -35.18160450829576       25.94124311447332
C           -0.95099378687328      -34.02117898507585       25.90265789580685
C           -0.64858728187358      -36.42941154773903       26.47457670452124
O            0.47382776994672      -35.41113758845274       24.59695661128573
C            1.92939295719025      -35.32367426121900       21.95933287565571
C            2.56041506314121      -35.35750319822795       20.60791043466458
H            1.87985253044253      -35.84043807900664       19.90524476784188
C            2.99710971055942      -34.03722396813980       20.03544087336593
C            3.73531825770444      -33.09700702241615       20.68676421502144
C            4.15426025007067      -33.12342816373094       22.01799864581787
H            4.83832274650738      -32.35179953368016       22.34069908857385
H            2.44143799687963      -37.71623793304524       15.76916111492432
H            3.91998169533141      -38.57083009243522       15.30950582221230
H            3.97105347152749      -36.85053684253658       15.73901830130884
H            1.80391810557919      -39.15440239570233       17.57352635264145
H            2.95308683900668      -39.68728735273839       18.79431431022898
H            3.10699261369031      -40.26143132236697       17.11807988881234
H            5.56738671824375      -40.33309497272013       17.00729929042935
H            5.11680118127693      -40.36498718474636       18.72325585240899
H            6.72708183706385      -39.84400819896953       18.24981382580234
H            6.24557051889681      -38.04191947293931       15.96772928670649
H            7.18015580564441      -37.64528370502359       17.41720521707355
H            5.89698742474933      -36.56306566428132       16.89221861603302
H            5.87478145386901      -36.30217160261206       21.16303728901281
H            2.24532449694919      -33.51118388763869       28.15086390067790
H            0.55602343561961      -33.93082299854947       28.46208803040982
H            0.97292218065426      -32.74606662676013       27.20928650953975
H            3.05087480202692      -35.71794977141392       27.67874297205147
H            2.17430780584255      -36.82391726833652       26.62881150277651
H            1.48541172501113      -36.35689417291225       28.20093117150054
H           -1.35201580304001      -33.81538379222837       26.89062891587971
H           -1.76763461832934      -34.29319407547869       25.23799576709460
H           -0.47704700850901      -33.12818881561532       25.50301780580752
H           -0.89956141629021      -36.30036119529424       27.52401000362801
H           -0.02562630395667      -37.30981178922559       26.35548363128608
H           -1.56437633370240      -36.58657359845257       25.91023164306905
H            0.95339681599435      -35.78258348026911       22.04105998756241
H            2.82450436849763      -33.91417297360749       18.97644284929320
H            4.08087690677750      -32.24867085271087       20.10555153307466

          :  Hamiltonian                  GFN2-xTB          :
         :: total energy             -82.290309968941 Eh    ::
         :: gradient norm              0.000169171567 Eh/a0 ::
         :: HOMO-LUMO gap              2.229826421285 eV    ::
         :: SCC energy               -83.366667124223 Eh    ::
         :: -> dispersion             -0.062365592462 Eh    ::
         :: repulsion energy           1.075535845056 Eh    ::

    * Orbital Energies and Occupations

         #    Occupation            Energy/Eh            Energy/eV
      -------------------------------------------------------------
         1        2.0000           -0.6873509             -18.7038
       ...           ...                  ...                  ...
        63        2.0000           -0.4355131             -11.8509
        64        2.0000           -0.4298940             -11.6980
        65        2.0000           -0.4252068             -11.5705
        66        2.0000           -0.4201231             -11.4321
        67        2.0000           -0.4189259             -11.3996
        68        2.0000           -0.4141760             -11.2703
        69        2.0000           -0.4027313             -10.9589
        70        2.0000           -0.3969715             -10.8021
        71        2.0000           -0.3952532             -10.7554
        72        2.0000           -0.3923632             -10.6767
        73        2.0000           -0.3916505             -10.6574
        74        2.0000           -0.3601703              -9.8007
        75        2.0000           -0.3352523              -9.1227 (HOMO)
        76                         -0.2533077              -6.8929 (LUMO)
        77                         -0.2189662              -5.9584
        78                         -0.1878803              -5.1125
        79                         -0.1334777              -3.6321
        80                         -0.0976833              -2.6581
        81                         -0.0802932              -2.1849
        82                          0.0092862               0.2527
        83                          0.0134567               0.3662
        84                          0.0291118               0.7922
        85                          0.0305954               0.8325
        86                          0.0570799               1.5532
       ...                                ...                  ...
       144                          0.6825401              18.5729
      -------------------------------------------------------------
                  HL-Gap            0.0819446 Eh            2.2298 eV

     #   Z          covCN         q      C6AA      α(0)
     1   6 C        3.755    -0.117    22.787     6.807
     2   6 C        3.858     0.129    18.447     6.108
     3   8 O        1.638    -0.376    20.390     6.095
     4   6 C        3.755    -0.116    22.769     6.804
     5   6 C        3.858     0.130    18.446     6.108
     6   6 C        3.755    -0.117    22.796     6.808
     7   6 C        3.755    -0.115    22.761     6.803
     8   8 O        1.638    -0.375    20.388     6.095
     9   5 B        2.658     0.431    15.582     6.647
    10   6 C        2.934    -0.084    30.105     8.998
    11   6 C        2.892    -0.037    28.927     8.818
    12   6 C        3.271    -0.024    27.251     8.417
    13   1 H        0.926     0.030     2.585     2.514
    14   6 C        3.864    -0.009    20.695     6.469
    15   1 H        0.925     0.048     2.339     2.392
    16   6 C        2.864    -0.084    30.099     8.993
    17   5 B        2.662     0.431    15.562     6.640
    18   8 O        1.638    -0.372    20.331     6.086
    19   6 C        3.860     0.129    18.455     6.109
    20   6 C        3.755    -0.117    22.799     6.808
    21   6 C        3.755    -0.116    22.781     6.806
    22   6 C        3.860     0.129    18.456     6.110
    23   6 C        3.755    -0.116    22.786     6.806
    24   6 C        3.755    -0.118    22.808     6.810
    25   8 O        1.638    -0.370    20.277     6.078
    26   6 C        2.897    -0.025    28.622     8.772
    27   6 C        3.861    -0.013    20.771     6.481
    28   1 H        0.924     0.046     2.367     2.406
    29   6 C        2.961    -0.029    28.725     8.791
    30   6 C        2.888    -0.041    29.007     8.830
    31   6 C        3.273    -0.020    27.128     8.394
    32   1 H        0.926     0.031     2.577     2.510
    33   1 H        0.925     0.054     2.275     2.359
    34   1 H        0.925     0.039     2.465     2.455
    35   1 H        0.925     0.051     2.310     2.377
    36   1 H        0.925     0.051     2.302     2.373
    37   1 H        0.925     0.043     2.404     2.425
    38   1 H        0.925     0.042     2.429     2.437
    39   1 H        0.925     0.039     2.461     2.453
    40   1 H        0.925     0.052     2.298     2.371
    41   1 H        0.925     0.054     2.276     2.359
    42   1 H        0.925     0.042     2.425     2.435
    43   1 H        0.925     0.051     2.305     2.374
    44   1 H        0.925     0.043     2.416     2.431
    45   1 H        0.925     0.035     2.522     2.483
    46   1 H        0.925     0.054     2.271     2.356
    47   1 H        0.925     0.040     2.452     2.449
    48   1 H        0.925     0.052     2.295     2.369
    49   1 H        0.925     0.052     2.296     2.370
    50   1 H        0.925     0.044     2.398     2.422
    51   1 H        0.925     0.042     2.416     2.431
    52   1 H        0.925     0.043     2.413     2.429
    53   1 H        0.925     0.053     2.287     2.365
    54   1 H        0.925     0.044     2.398     2.422
    55   1 H        0.925     0.040     2.450     2.448
    56   1 H        0.925     0.052     2.292     2.367
    57   1 H        0.925     0.055     2.262     2.352
    58   1 H        0.925     0.038     2.482     2.463
    59   1 H        0.926     0.030     2.581     2.512
    60   1 H        0.925     0.024     2.669     2.555

Wiberg/Mayer (AO) data.
largest (>0.10) Wiberg bond orders for each atom

     #   Z sym  total        # sym  WBO       # sym  WBO       # sym  WBO
 ---------------------------------------------------------------------------
     1   6 C    3.994 --     2 C    0.996    34 H    0.985    33 H    0.983
                            35 H    0.982
     2   6 C    3.944 --     1 C    0.996     4 C    0.990     3 O    0.955
                             5 C    0.936
     3   8 O    2.222 --     9 B    1.116     2 C    0.955
     4   6 C    3.994 --     2 C    0.990    38 H    0.985    37 H    0.984
                            36 H    0.983
     5   6 C    3.943 --     6 C    0.996     7 C    0.990     8 O    0.955
                             2 C    0.936
     6   6 C    3.994 --     5 C    0.996    39 H    0.985    41 H    0.983
                            40 H    0.982
     7   6 C    3.995 --     5 C    0.990    42 H    0.985    44 H    0.984
                            43 H    0.983
     8   8 O    2.222 --     9 B    1.118     5 C    0.955
     9   5 B    3.383 --     8 O    1.118     3 O    1.116    10 C    1.022
    10   6 C    3.954 --    11 C    1.520     9 B    1.022    27 C    0.946
                            29 C    0.196    31 C    0.137
    11   6 C    3.991 --    10 C    1.520    12 C    1.389    45 H    0.961
    12   6 C    3.947 --    11 C    1.389    13 H    0.973    14 C    0.953
                            31 C    0.419    29 C    0.134
    13   1 H    0.999 --    12 C    0.973
    14   6 C    3.986 --    16 C    1.005    15 H    0.967    31 C    0.967
                            12 C    0.953
    15   1 H    0.997 --    14 C    0.967
    16   6 C    3.977 --    26 C    1.849    14 C    1.005    17 B    0.999
    17   5 B    3.376 --    25 O    1.133    18 O    1.127    16 C    0.999
    18   8 O    2.232 --    17 B    1.127    19 C    0.953
    19   6 C    3.943 --    20 C    0.997    21 C    0.991    18 O    0.953
                            22 C    0.937
    20   6 C    3.994 --    19 C    0.997    47 H    0.984    46 H    0.983
                            48 H    0.982
    21   6 C    3.994 --    19 C    0.991    51 H    0.984    50 H    0.984
                            49 H    0.983
    22   6 C    3.942 --    24 C    0.996    23 C    0.991    25 O    0.952
                            19 C    0.937
    23   6 C    3.995 --    22 C    0.991    52 H    0.984    54 H    0.984
                            53 H    0.983
    24   6 C    3.994 --    22 C    0.996    55 H    0.985    57 H    0.983
                            56 H    0.982
    25   8 O    2.237 --    17 B    1.133    22 C    0.952
    26   6 C    3.987 --    16 C    1.849    27 C    1.011    58 H    0.967
    27   6 C    3.993 --    26 C    1.011    29 C    0.978    28 H    0.970
                            10 C    0.946
    28   1 H    0.998 --    27 C    0.970
    29   6 C    3.968 --    30 C    1.587    27 C    0.978    59 H    0.972
                            10 C    0.196    12 C    0.134
    30   6 C    3.991 --    29 C    1.587    31 C    1.354    60 H    0.963
    31   6 C    3.934 --    30 C    1.354    32 H    0.974    14 C    0.967
                            12 C    0.419    10 C    0.137
    32   1 H    0.999 --    31 C    0.974
    33   1 H    0.997 --     1 C    0.983
    34   1 H    0.998 --     1 C    0.985
    35   1 H    0.997 --     1 C    0.982
    36   1 H    0.997 --     4 C    0.983
    37   1 H    0.998 --     4 C    0.984
    38   1 H    0.998 --     4 C    0.985
    39   1 H    0.998 --     6 C    0.985
    40   1 H    0.997 --     6 C    0.982
    41   1 H    0.997 --     6 C    0.983
    42   1 H    0.998 --     7 C    0.985
    43   1 H    0.997 --     7 C    0.983
    44   1 H    0.998 --     7 C    0.984
    45   1 H    0.999 --    11 C    0.961
    46   1 H    0.997 --    20 C    0.983
    47   1 H    0.998 --    20 C    0.984
    48   1 H    0.997 --    20 C    0.982
    49   1 H    0.997 --    21 C    0.983
    50   1 H    0.998 --    21 C    0.984
    51   1 H    0.998 --    21 C    0.984
    52   1 H    0.998 --    23 C    0.984
    53   1 H    0.997 --    23 C    0.983
    54   1 H    0.998 --    23 C    0.984
    55   1 H    0.998 --    24 C    0.985
    56   1 H    0.997 --    24 C    0.982
    57   1 H    0.997 --    24 C    0.983
    58   1 H    0.998 --    26 C    0.967
    59   1 H    0.999 --    29 C    0.972
    60   1 H    0.999 --    30 C    0.963
 ---------------------------------------------------------------------------

molecular dipole:
                 x           y           z       tot (Debye)
 q only:       -0.242      -0.326       0.238
   full:       -0.063      -0.380       0.125       1.029

           -------------------------------------------------
          | TOTAL ENERGY              -82.290309968941 Eh   |
          | GRADIENT NORM               0.000169171567 Eh/α |
          | HOMO-LUMO GAP               2.229826421285 eV   |
           -------------------------------------------------

 * finished run on 2022/07/09 at 18:33:13.350
