   * xtb version 6.5.0 (homebrew) compiled by 'nhattrup@GPGGRP-SHANNON.CHEME.CMU.EDU' on
          program call               : /opt/homebrew/bin/xtb bvl_bpin2_scan_7-0_xtb.xyz --chrg 0 --uhf 0 --opt --input xcontrol_bvl_bpin2_scan_7-0_xtb

   ID    Z sym.   atoms
    1    6 C      1, 2, 4-7, 10-12, 14, 16, 19-24, 26, 27, 29-31
    2    8 O      3, 8, 18, 25
    3    5 B      9, 17
    4    1 H      13, 15, 28, 32-60
constraining bond 12 31 to    2.2778000 Å, actual value:    2.1624973 Å
constraining bond 10 29 to    2.5000000 Å, actual value:    2.4969260 Å

          :  Hamiltonian                  GFN2-xTB          :
 * total energy  :   -82.1814521 Eh     change       -0.5267822E-09 Eh
 * total energy  :   -82.2409226 Eh     change       -0.5947049E-01 Eh
 * total energy  :   -82.2690075 Eh     change       -0.2808497E-01 Eh
 * total energy  :   -82.2693029 Eh     change       -0.2954139E-03 Eh
 * total energy  :   -82.2694591 Eh     change       -0.1561673E-03 Eh
 * total energy  :   -82.2679471 Eh     change        0.1512028E-02 Eh
 * total energy  :   -82.2696541 Eh     change       -0.1707031E-02 Eh
 * total energy  :   -82.2697037 Eh     change       -0.4955958E-04 Eh
 * total energy  :   -82.2698234 Eh     change       -0.1197336E-03 Eh
 * total energy  :   -82.2698671 Eh     change       -0.4373312E-04 Eh
 * total energy  :   -82.2702809 Eh     change       -0.2205976E-04 Eh
 * total energy  :   -82.2702960 Eh     change       -0.1504523E-04 Eh
 * total energy  :   -82.2703107 Eh     change       -0.1477131E-04 Eh
 * total energy  :   -82.2703258 Eh     change       -0.1501803E-04 Eh
 * total energy  :   -82.2703410 Eh     change       -0.1524082E-04 Eh
 * total energy  :   -82.2703525 Eh     change       -0.1150683E-04 Eh
 * total energy  :   -82.2703592 Eh     change       -0.6658701E-05 Eh
 * total energy  :   -82.2703603 Eh     change       -0.1143704E-05 Eh
 * total energy  :   -82.2703643 Eh     change       -0.4008554E-05 Eh
   *** GEOMETRY OPTIMIZATION CONVERGED AFTER 42 ITERATIONS ***

 final structure:
================
60
 xtb: 6.5.0 (homebrew)
C            3.51965948126327      -37.80258466632131       15.97036475918260
C            3.69894849391484      -38.19382761683143       17.43547503072596
O            3.28458432341809      -37.11584670267757       18.27090009746898
C            2.78156233220942      -39.38174579282722       17.75299283574765
C            5.18675467615371      -38.43750024447535       17.87946993503738
C            5.59943788231488      -39.90473875512232       17.97212979891693
C            6.19870333861400      -37.68693269881750       17.00353748597474
O            5.23992960881223      -37.84436211555600       19.17508627657424
B            4.16037874794145      -37.01046632340577       19.32153191360509
C            3.94184548674555      -36.08762618202635       20.54026852578014
C            4.96813281133704      -35.85326017259603       21.43304202806438
C            4.99750041045274      -35.02327366611811       22.53657460627907
H            5.94838395936428      -34.86251363901999       23.02398181282116
C            3.86802663326451      -34.14064186838174       23.03305724087714
H            4.08762496366317      -33.81263373942350       24.05057645601828
C            2.50568527988210      -34.77909792460087       23.03261011950689
B            1.75205843608078      -34.87372307018630       24.39493650772770
O            2.25600333787890      -34.38591060481640       25.57031212197404
C            1.40738664742181      -34.79555844881986       26.64088707975273
C            1.23984935656892      -33.64268675611899       27.62832154438717
C            2.11405056358735      -35.96069388518783       27.34547428150621
C            0.08999380878759      -35.23404530294182       25.90298809236214
C           -0.96375392824819      -34.12043552993153       25.85029301091717
C           -0.55727903518124      -36.50767017334398       26.44258436922873
O            0.52777699880575      -35.45616402707599       24.56265630725896
C            1.97733064179921      -35.27837842444792       21.91519338519049
C            2.63290844105295      -35.25914971920315       20.56996258492234
H            1.96112800132494      -35.72078541274367       19.84333049711166
C            2.94245808138517      -33.84917229927720       20.06967437266762
C            3.66682551375877      -32.92050803512156       20.75979427400694
C            4.08909369977221      -32.98918050758679       22.08013959720487
H            4.77465822840921      -32.23020756710731       22.42913295579579
H            2.45908752063886      -37.67592207324311       15.76738997553219
H            3.91096323299890      -38.58245597571074       15.32255294510982
H            4.01829870248083      -36.86423734276509       15.75033641621472
H            1.75167672504789      -39.07877048031224       17.57804115422778
H            2.87639855883165      -39.65937635652467       18.79971533579020
H            3.01118568304996      -40.23543451078090       17.12248782594806
H            5.48388970296684      -40.38932904217699       17.00640756155369
H            5.01087359810411      -40.43158428854709       18.71584609846459
H            6.64358015571337      -39.95819069913774       18.27005619547615
H            6.24435978635624      -38.10962015869850       16.00440368544566
H            7.17997765691686      -37.76465160113306       17.46609376950393
H            5.93717030673871      -36.63327312123290       16.94713023650929
H            5.87659745851289      -36.41590550239638       21.24366997317358
H            2.20047001549205      -33.43489090233443       28.09334089679117
H            0.52596435982471      -33.91119750262083       28.40220383211896
H            0.90777575214841      -32.74036780282785       27.12530957013726
H            3.08911398811439      -35.61828436007656       27.68444798988800
H            2.27060032625451      -36.78079458563416       26.64942935204011
H            1.54343519234150      -36.30672611343696       28.20184628960279
H           -1.37188180425617      -33.91850871845343       26.83599353123027
H           -1.76868387358618      -34.43836285802087       25.19192383486528
H           -0.53140575318134      -33.21304340773617       25.43664365779823
H           -0.82692908019742      -36.37956544019166       27.48745946427512
H            0.10726354150290      -37.35918379688964       26.34048017568316
H           -1.45770197658718      -36.71349691442752       25.86926888331786
H            1.00278292984556      -35.74380005855215       21.97573956140628
H            2.74261292331325      -33.67994006929096       19.02265062114374
H            3.92862714810760      -32.00875444464003       20.23167126215082

          :  Hamiltonian                  GFN2-xTB          :
         :: total energy             -82.270364323268 Eh    ::
         :: gradient norm              0.000842468650 Eh/a0 ::
         :: HOMO-LUMO gap              1.125501313308 eV    ::
         :: SCC energy               -83.339913856979 Eh    ::
         :: -> dispersion             -0.062144900653 Eh    ::
         :: repulsion energy           1.068577446176 Eh    ::

    * Orbital Energies and Occupations

         #    Occupation            Energy/Eh            Energy/eV
      -------------------------------------------------------------
         1        2.0000           -0.6864200             -18.6784
       ...           ...                  ...                  ...
        63        2.0000           -0.4363674             -11.8742
        64        2.0000           -0.4289578             -11.6725
        65        2.0000           -0.4213887             -11.4666
        66        2.0000           -0.4188544             -11.3976
        67        2.0000           -0.4176552             -11.3650
        68        2.0000           -0.4129019             -11.2356
        69        2.0000           -0.4001380             -10.8883
        70        2.0000           -0.3983434             -10.8395
        71        2.0000           -0.3961601             -10.7801
        72        2.0000           -0.3943423             -10.7306
        73        2.0000           -0.3910818             -10.6419
        74        2.0000           -0.3658687              -9.9558
        75        2.0000           -0.3244750              -8.8294 (HOMO)
        76                         -0.2831135              -7.7039 (LUMO)
        77                         -0.2172729              -5.9123
        78                         -0.1855449              -5.0489
        79                         -0.1503635              -4.0916
        80                         -0.0949795              -2.5845
        81                         -0.0866782              -2.3586
        82                          0.0101898               0.2773
        83                          0.0150993               0.4109
        84                          0.0294518               0.8014
        85                          0.0310954               0.8461
        86                          0.0573960               1.5618
       ...                                ...                  ...
       144                          0.6764292              18.4066
      -------------------------------------------------------------
                  HL-Gap            0.0413614 Eh            1.1255 eV

     #   Z          covCN         q      C6AA      α(0)
     1   6 C        3.755    -0.117    22.787     6.806
     2   6 C        3.859     0.130    18.444     6.108
     3   8 O        1.638    -0.376    20.392     6.096
     4   6 C        3.755    -0.116    22.767     6.803
     5   6 C        3.859     0.130    18.442     6.107
     6   6 C        3.755    -0.117    22.794     6.807
     7   6 C        3.755    -0.115    22.759     6.802
     8   8 O        1.638    -0.376    20.401     6.097
     9   5 B        2.658     0.429    15.597     6.650
    10   6 C        2.866    -0.086    30.159     9.002
    11   6 C        2.891    -0.031    28.780     8.796
    12   6 C        2.959    -0.028    28.706     8.788
    13   1 H        0.926     0.031     2.578     2.511
    14   6 C        3.861    -0.011    20.727     6.474
    15   1 H        0.924     0.050     2.319     2.381
    16   6 C        2.865    -0.084    30.104     8.994
    17   5 B        2.659     0.430    15.582     6.646
    18   8 O        1.638    -0.372    20.320     6.085
    19   6 C        3.859     0.129    18.458     6.110
    20   6 C        3.755    -0.117    22.798     6.808
    21   6 C        3.755    -0.116    22.779     6.805
    22   6 C        3.859     0.129    18.458     6.110
    23   6 C        3.755    -0.116    22.786     6.806
    24   6 C        3.755    -0.118    22.807     6.809
    25   8 O        1.638    -0.369    20.273     6.078
    26   6 C        2.898    -0.025    28.615     8.771
    27   6 C        3.856    -0.017    20.846     6.494
    28   1 H        0.924     0.048     2.347     2.396
    29   6 C        2.894    -0.031    28.775     8.795
    30   6 C        2.888    -0.033    28.816     8.801
    31   6 C        2.961    -0.024    28.590     8.770
    32   1 H        0.926     0.032     2.563     2.503
    33   1 H        0.925     0.053     2.277     2.360
    34   1 H        0.925     0.039     2.468     2.457
    35   1 H        0.925     0.051     2.310     2.377
    36   1 H        0.925     0.051     2.304     2.374
    37   1 H        0.925     0.043     2.404     2.425
    38   1 H        0.925     0.041     2.431     2.438
    39   1 H        0.925     0.039     2.465     2.455
    40   1 H        0.925     0.052     2.299     2.371
    41   1 H        0.925     0.053     2.279     2.361
    42   1 H        0.925     0.042     2.427     2.436
    43   1 H        0.925     0.051     2.311     2.377
    44   1 H        0.925     0.042     2.420     2.433
    45   1 H        0.925     0.037     2.494     2.470
    46   1 H        0.925     0.054     2.273     2.358
    47   1 H        0.925     0.040     2.455     2.450
    48   1 H        0.925     0.052     2.298     2.371
    49   1 H        0.925     0.052     2.298     2.371
    50   1 H        0.925     0.044     2.399     2.422
    51   1 H        0.925     0.042     2.419     2.432
    52   1 H        0.925     0.043     2.415     2.430
    53   1 H        0.925     0.053     2.289     2.366
    54   1 H        0.925     0.044     2.399     2.422
    55   1 H        0.925     0.040     2.452     2.449
    56   1 H        0.925     0.052     2.295     2.369
    57   1 H        0.925     0.055     2.263     2.353
    58   1 H        0.925     0.037     2.493     2.469
    59   1 H        0.926     0.032     2.553     2.499
    60   1 H        0.925     0.027     2.628     2.535

Wiberg/Mayer (AO) data.
largest (>0.10) Wiberg bond orders for each atom

     #   Z sym  total        # sym  WBO       # sym  WBO       # sym  WBO
 ---------------------------------------------------------------------------
     1   6 C    3.994 --     2 C    0.996    34 H    0.985    33 H    0.983
                            35 H    0.982
     2   6 C    3.944 --     1 C    0.996     4 C    0.990     3 O    0.956
                             5 C    0.936
     3   8 O    2.219 --     9 B    1.113     2 C    0.956
     4   6 C    3.994 --     2 C    0.990    38 H    0.985    37 H    0.984
                            36 H    0.983
     5   6 C    3.943 --     6 C    0.996     7 C    0.990     8 O    0.955
                             2 C    0.936
     6   6 C    3.994 --     5 C    0.996    39 H    0.985    41 H    0.983
                            40 H    0.982
     7   6 C    3.994 --     5 C    0.990    42 H    0.985    44 H    0.984
                            43 H    0.983
     8   8 O    2.218 --     9 B    1.113     5 C    0.955
     9   5 B    3.387 --     8 O    1.113     3 O    1.113    10 C    1.031
    10   6 C    3.950 --    11 C    1.486     9 B    1.031    27 C    0.948
                            29 C    0.185    31 C    0.166
    11   6 C    3.991 --    10 C    1.486    12 C    1.447    45 H    0.959
    12   6 C    3.948 --    11 C    1.447    13 H    0.972    14 C    0.961
                            31 C    0.325    29 C    0.159
    13   1 H    0.999 --    12 C    0.972
    14   6 C    3.991 --    16 C    0.999    31 C    0.977    15 H    0.967
                            12 C    0.961
    15   1 H    0.997 --    14 C    0.967
    16   6 C    3.977 --    26 C    1.853    17 B    1.000    14 C    0.999
    17   5 B    3.376 --    25 O    1.133    18 O    1.126    16 C    1.000
    18   8 O    2.233 --    17 B    1.126    19 C    0.954
    19   6 C    3.943 --    20 C    0.996    21 C    0.991    18 O    0.954
                            22 C    0.936
    20   6 C    3.994 --    19 C    0.996    47 H    0.985    46 H    0.983
                            48 H    0.982
    21   6 C    3.994 --    19 C    0.991    51 H    0.985    50 H    0.984
                            49 H    0.983
    22   6 C    3.942 --    24 C    0.996    23 C    0.991    25 O    0.953
                            19 C    0.936
    23   6 C    3.995 --    22 C    0.991    52 H    0.984    54 H    0.984
                            53 H    0.983
    24   6 C    3.994 --    22 C    0.996    55 H    0.985    57 H    0.983
                            56 H    0.982
    25   8 O    2.237 --    17 B    1.133    22 C    0.953
    26   6 C    3.986 --    16 C    1.853    27 C    1.008    58 H    0.966
    27   6 C    3.993 --    26 C    1.008    29 C    0.981    28 H    0.971
                            10 C    0.948
    28   1 H    0.998 --    27 C    0.971
    29   6 C    3.965 --    30 C    1.560    27 C    0.981    59 H    0.973
                            10 C    0.185    12 C    0.159
    30   6 C    3.993 --    29 C    1.560    31 C    1.403    60 H    0.961
    31   6 C    3.932 --    30 C    1.403    14 C    0.977    32 H    0.973
                            12 C    0.325    10 C    0.166
    32   1 H    0.999 --    31 C    0.973
    33   1 H    0.997 --     1 C    0.983
    34   1 H    0.998 --     1 C    0.985
    35   1 H    0.997 --     1 C    0.982
    36   1 H    0.997 --     4 C    0.983
    37   1 H    0.998 --     4 C    0.984
    38   1 H    0.998 --     4 C    0.985
    39   1 H    0.998 --     6 C    0.985
    40   1 H    0.997 --     6 C    0.982
    41   1 H    0.997 --     6 C    0.983
    42   1 H    0.998 --     7 C    0.985
    43   1 H    0.997 --     7 C    0.983
    44   1 H    0.998 --     7 C    0.984
    45   1 H    0.998 --    11 C    0.959
    46   1 H    0.997 --    20 C    0.983
    47   1 H    0.998 --    20 C    0.985
    48   1 H    0.997 --    20 C    0.982
    49   1 H    0.997 --    21 C    0.983
    50   1 H    0.998 --    21 C    0.984
    51   1 H    0.998 --    21 C    0.985
    52   1 H    0.998 --    23 C    0.984
    53   1 H    0.997 --    23 C    0.983
    54   1 H    0.998 --    23 C    0.984
    55   1 H    0.998 --    24 C    0.985
    56   1 H    0.997 --    24 C    0.982
    57   1 H    0.997 --    24 C    0.983
    58   1 H    0.999 --    26 C    0.966
    59   1 H    0.999 --    29 C    0.973
    60   1 H    0.999 --    30 C    0.961
 ---------------------------------------------------------------------------

molecular dipole:
                 x           y           z       tot (Debye)
 q only:       -0.235      -0.274       0.217
   full:       -0.047      -0.315       0.081       0.836

           -------------------------------------------------
          | TOTAL ENERGY              -82.270364323268 Eh   |
          | GRADIENT NORM               0.000842468650 Eh/α |
          | HOMO-LUMO GAP               1.125501313308 eV   |
           -------------------------------------------------

 * finished run on 2022/07/09 at 18:33:13.308
